<?xml version="1.0" encoding="UTF-8"?>

<!-- generated on 2025-04-06 23:40:06 by Eclipse SUMO sumo Version v1_21_0+0707-ca487ebdee8
<sumoConfiguration xmlns:xsi="http://www.w3.org/2001/XMLSchema-instance" xsi:noNamespaceSchemaLocation="http://sumo.dlr.de/xsd/sumoConfiguration.xsd">

    <input>
        <net-file value="nt1.net.xml"/>
        <route-files value="nt1.rou.xml"/>
        <additional-files value="nt1.add.xml"/>
    </input>

    <output>
        <tripinfo-output value="tripinfo3.xml"/>
    </output>

</sumoConfiguration>
-->

<tripinfos xmlns:xsi="http://www.w3.org/2001/XMLSchema-instance" xsi:noNamespaceSchemaLocation="http://sumo.dlr.de/xsd/tripinfo_file.xsd">
    <tripinfo id="f_1.0" depart="0.00" departLane="E0_0" departPos="5.10" departSpeed="0.00" departDelay="0.00" arrival="17.00" arrivalLane="E2_0" arrivalPos="83.74" arrivalSpeed="12.29" duration="17.00" routeLength="172.66" waitingTime="0.00" waitingCount="0" stopTime="0.00" timeLoss="3.32" rerouteNo="0" devices="tripinfo_f_1.0" vType="DEFAULT_VEHTYPE" speedFactor="0.94" vaporized=""/>
    <tripinfo id="f_1.1" depart="3.00" departLane="E0_0" departPos="5.10" departSpeed="0.00" departDelay="1.00" arrival="20.00" arrivalLane="E2_0" arrivalPos="83.74" arrivalSpeed="14.51" duration="17.00" routeLength="172.66" waitingTime="0.00" waitingCount="0" stopTime="0.00" timeLoss="4.58" rerouteNo="0" devices="tripinfo_f_1.1" vType="DEFAULT_VEHTYPE" speedFactor="1.08" vaporized=""/>
    <tripinfo id="f_1.2" depart="6.00" departLane="E0_0" departPos="5.10" departSpeed="0.00" departDelay="2.00" arrival="25.00" arrivalLane="E2_0" arrivalPos="83.74" arrivalSpeed="10.86" duration="19.00" routeLength="172.66" waitingTime="0.00" waitingCount="0" stopTime="0.00" timeLoss="3.17" rerouteNo="0" devices="tripinfo_f_1.2" vType="DEFAULT_VEHTYPE" speedFactor="0.83" vaporized=""/>
    <tripinfo id="f_1.3" depart="9.00" departLane="E0_0" departPos="5.10" departSpeed="0.00" departDelay="3.00" arrival="27.00" arrivalLane="E2_0" arrivalPos="83.74" arrivalSpeed="11.56" duration="18.00" routeLength="172.66" waitingTime="0.00" waitingCount="0" stopTime="0.00" timeLoss="3.31" rerouteNo="0" devices="tripinfo_f_1.3" vType="DEFAULT_VEHTYPE" speedFactor="0.89" vaporized=""/>
    <tripinfo id="f_1.4" depart="12.00" departLane="E0_0" departPos="5.10" departSpeed="0.00" departDelay="4.00" arrival="30.00" arrivalLane="E2_0" arrivalPos="83.74" arrivalSpeed="11.01" duration="18.00" routeLength="172.66" waitingTime="0.00" waitingCount="0" stopTime="0.00" timeLoss="3.14" rerouteNo="0" devices="tripinfo_f_1.4" vType="DEFAULT_VEHTYPE" speedFactor="0.86" vaporized=""/>
    <tripinfo id="f_1.5" depart="15.00" departLane="E0_0" departPos="5.10" departSpeed="0.00" departDelay="5.00" arrival="32.00" arrivalLane="E2_0" arrivalPos="83.74" arrivalSpeed="14.14" duration="17.00" routeLength="172.66" waitingTime="0.00" waitingCount="0" stopTime="0.00" timeLoss="4.19" rerouteNo="0" devices="tripinfo_f_1.5" vType="DEFAULT_VEHTYPE" speedFactor="1.03" vaporized=""/>
    <tripinfo id="f_0.0" depart="0.00" departLane="E1_0" departPos="5.10" departSpeed="0.00" departDelay="0.00" arrival="36.00" arrivalLane="E2_1" arrivalPos="83.74" arrivalSpeed="13.80" duration="36.00" routeLength="173.67" waitingTime="15.00" waitingCount="1" stopTime="0.00" timeLoss="23.32" rerouteNo="0" devices="tripinfo_f_0.0" vType="DEFAULT_VEHTYPE" speedFactor="1.06" vaporized=""/>
    <tripinfo id="f_0.1" depart="3.00" departLane="E1_0" departPos="5.10" departSpeed="0.00" departDelay="1.00" arrival="37.00" arrivalLane="E2_0" arrivalPos="83.74" arrivalSpeed="12.94" duration="34.00" routeLength="178.85" waitingTime="11.00" waitingCount="1" stopTime="0.00" timeLoss="20.54" rerouteNo="0" devices="tripinfo_f_0.1" vType="DEFAULT_VEHTYPE" speedFactor="1.01" vaporized=""/>
    <tripinfo id="f_0.3" depart="9.00" departLane="E1_0" departPos="5.10" departSpeed="0.00" departDelay="3.00" arrival="38.00" arrivalLane="E2_1" arrivalPos="83.74" arrivalSpeed="14.26" duration="29.00" routeLength="173.67" waitingTime="6.00" waitingCount="1" stopTime="0.00" timeLoss="16.17" rerouteNo="0" devices="tripinfo_f_0.3" vType="DEFAULT_VEHTYPE" speedFactor="1.05" vaporized=""/>
    <tripinfo id="f_0.2" depart="6.00" departLane="E1_0" departPos="5.10" departSpeed="0.00" departDelay="2.00" arrival="39.00" arrivalLane="E2_0" arrivalPos="83.74" arrivalSpeed="13.13" duration="33.00" routeLength="178.85" waitingTime="9.00" waitingCount="1" stopTime="0.00" timeLoss="19.52" rerouteNo="0" devices="tripinfo_f_0.2" vType="DEFAULT_VEHTYPE" speedFactor="1.03" vaporized=""/>
    <tripinfo id="f_0.5" depart="15.00" departLane="E1_0" departPos="5.10" departSpeed="0.00" departDelay="5.00" arrival="41.00" arrivalLane="E2_1" arrivalPos="83.74" arrivalSpeed="14.20" duration="26.00" routeLength="173.67" waitingTime="1.00" waitingCount="1" stopTime="0.00" timeLoss="12.82" rerouteNo="0" devices="tripinfo_f_0.5" vType="DEFAULT_VEHTYPE" speedFactor="1.09" vaporized=""/>
    <tripinfo id="f_0.4" depart="12.00" departLane="E1_0" departPos="5.10" departSpeed="0.00" departDelay="4.00" arrival="42.00" arrivalLane="E2_0" arrivalPos="83.74" arrivalSpeed="12.44" duration="30.00" routeLength="178.85" waitingTime="5.00" waitingCount="1" stopTime="0.00" timeLoss="15.38" rerouteNo="0" devices="tripinfo_f_0.4" vType="DEFAULT_VEHTYPE" speedFactor="0.94" vaporized=""/>
    <tripinfo id="f_0.6" depart="18.00" departLane="E1_0" departPos="5.10" departSpeed="0.00" departDelay="6.00" arrival="44.00" arrivalLane="E2_0" arrivalPos="83.74" arrivalSpeed="13.93" duration="26.00" routeLength="178.85" waitingTime="0.00" waitingCount="0" stopTime="0.00" timeLoss="12.57" rerouteNo="0" devices="tripinfo_f_0.6" vType="DEFAULT_VEHTYPE" speedFactor="1.05" vaporized=""/>
    <tripinfo id="f_0.7" depart="21.00" departLane="E1_0" departPos="5.10" departSpeed="0.00" departDelay="7.00" arrival="44.00" arrivalLane="E2_1" arrivalPos="83.74" arrivalSpeed="13.28" duration="23.00" routeLength="173.67" waitingTime="0.00" waitingCount="0" stopTime="0.00" timeLoss="9.22" rerouteNo="0" devices="tripinfo_f_0.7" vType="DEFAULT_VEHTYPE" speedFactor="0.99" vaporized=""/>
    <tripinfo id="f_0.8" depart="24.00" departLane="E1_0" departPos="5.10" departSpeed="0.00" departDelay="8.00" arrival="47.00" arrivalLane="E2_1" arrivalPos="83.74" arrivalSpeed="11.96" duration="23.00" routeLength="173.67" waitingTime="0.00" waitingCount="0" stopTime="0.00" timeLoss="7.74" rerouteNo="0" devices="tripinfo_f_0.8" vType="DEFAULT_VEHTYPE" speedFactor="0.88" vaporized=""/>
    <tripinfo id="f_0.9" depart="27.00" departLane="E1_0" departPos="5.10" departSpeed="0.00" departDelay="9.00" arrival="47.00" arrivalLane="E2_0" arrivalPos="83.74" arrivalSpeed="11.78" duration="20.00" routeLength="178.85" waitingTime="0.00" waitingCount="0" stopTime="0.00" timeLoss="5.43" rerouteNo="0" devices="tripinfo_f_0.9" vType="DEFAULT_VEHTYPE" speedFactor="0.94" vaporized=""/>
    <tripinfo id="f_0.10" depart="30.00" departLane="E1_0" departPos="5.10" departSpeed="0.00" departDelay="10.00" arrival="49.00" arrivalLane="E2_0" arrivalPos="83.74" arrivalSpeed="13.72" duration="19.00" routeLength="178.85" waitingTime="0.00" waitingCount="0" stopTime="0.00" timeLoss="5.42" rerouteNo="0" devices="tripinfo_f_0.10" vType="DEFAULT_VEHTYPE" speedFactor="1.02" vaporized=""/>
    <tripinfo id="f_0.11" depart="33.00" departLane="E1_0" departPos="5.10" departSpeed="0.00" departDelay="11.00" arrival="53.00" arrivalLane="E2_0" arrivalPos="83.74" arrivalSpeed="13.25" duration="20.00" routeLength="178.85" waitingTime="0.00" waitingCount="0" stopTime="0.00" timeLoss="5.07" rerouteNo="0" devices="tripinfo_f_0.11" vType="DEFAULT_VEHTYPE" speedFactor="0.97" vaporized=""/>
    <tripinfo id="f_0.12" depart="36.00" departLane="E1_0" departPos="5.10" departSpeed="0.00" departDelay="12.00" arrival="57.00" arrivalLane="E2_0" arrivalPos="83.74" arrivalSpeed="10.94" duration="21.00" routeLength="178.85" waitingTime="0.00" waitingCount="0" stopTime="0.00" timeLoss="3.89" rerouteNo="0" devices="tripinfo_f_0.12" vType="DEFAULT_VEHTYPE" speedFactor="0.83" vaporized=""/>
    <tripinfo id="f_0.13" depart="38.00" departLane="E1_0" departPos="5.10" departSpeed="0.00" departDelay="12.00" arrival="59.00" arrivalLane="E2_1" arrivalPos="83.74" arrivalSpeed="12.03" duration="21.00" routeLength="173.67" waitingTime="0.00" waitingCount="0" stopTime="0.00" timeLoss="6.32" rerouteNo="0" devices="tripinfo_f_0.13" vType="DEFAULT_VEHTYPE" speedFactor="0.92" vaporized=""/>
    <tripinfo id="f_0.14" depart="41.00" departLane="E1_0" departPos="5.10" departSpeed="0.00" departDelay="13.00" arrival="59.00" arrivalLane="E2_0" arrivalPos="83.74" arrivalSpeed="15.10" duration="18.00" routeLength="178.85" waitingTime="0.00" waitingCount="0" stopTime="0.00" timeLoss="5.70" rerouteNo="0" devices="tripinfo_f_0.14" vType="DEFAULT_VEHTYPE" speedFactor="1.13" vaporized=""/>
    <tripinfo id="f_1.6" depart="18.00" departLane="E0_0" departPos="5.10" departSpeed="0.00" departDelay="6.00" arrival="65.00" arrivalLane="E2_0" arrivalPos="83.74" arrivalSpeed="14.77" duration="47.00" routeLength="172.66" waitingTime="25.00" waitingCount="1" stopTime="0.00" timeLoss="35.23" rerouteNo="0" devices="tripinfo_f_1.6" vType="DEFAULT_VEHTYPE" speedFactor="1.12" vaporized=""/>
    <tripinfo id="f_1.7" depart="21.00" departLane="E0_0" departPos="5.10" departSpeed="0.00" departDelay="7.00" arrival="65.00" arrivalLane="E2_1" arrivalPos="83.74" arrivalSpeed="12.52" duration="44.00" routeLength="172.66" waitingTime="22.00" waitingCount="1" stopTime="0.00" timeLoss="30.19" rerouteNo="0" devices="tripinfo_f_1.7" vType="DEFAULT_VEHTYPE" speedFactor="0.93" vaporized=""/>
    <tripinfo id="f_1.9" depart="27.00" departLane="E0_0" departPos="5.10" departSpeed="0.00" departDelay="9.00" arrival="67.00" arrivalLane="E2_1" arrivalPos="83.74" arrivalSpeed="15.03" duration="40.00" routeLength="172.66" waitingTime="16.00" waitingCount="1" stopTime="0.00" timeLoss="28.69" rerouteNo="0" devices="tripinfo_f_1.9" vType="DEFAULT_VEHTYPE" speedFactor="1.16" vaporized=""/>
    <tripinfo id="f_1.8" depart="24.00" departLane="E0_0" departPos="5.10" departSpeed="0.00" departDelay="8.00" arrival="68.00" arrivalLane="E2_0" arrivalPos="83.74" arrivalSpeed="12.26" duration="44.00" routeLength="172.66" waitingTime="21.00" waitingCount="1" stopTime="0.00" timeLoss="30.16" rerouteNo="0" devices="tripinfo_f_1.8" vType="DEFAULT_VEHTYPE" speedFactor="0.94" vaporized=""/>
    <tripinfo id="f_1.10" depart="30.00" departLane="E0_0" departPos="5.10" departSpeed="0.00" departDelay="10.00" arrival="70.00" arrivalLane="E2_0" arrivalPos="83.74" arrivalSpeed="12.91" duration="40.00" routeLength="172.66" waitingTime="15.00" waitingCount="1" stopTime="0.00" timeLoss="26.80" rerouteNo="0" devices="tripinfo_f_1.10" vType="DEFAULT_VEHTYPE" speedFactor="1.01" vaporized=""/>
    <tripinfo id="f_1.11" depart="33.00" departLane="E0_0" departPos="5.10" departSpeed="0.00" departDelay="11.00" arrival="70.00" arrivalLane="E2_1" arrivalPos="83.74" arrivalSpeed="11.37" duration="37.00" routeLength="172.66" waitingTime="12.00" waitingCount="1" stopTime="0.00" timeLoss="22.88" rerouteNo="0" devices="tripinfo_f_1.11" vType="DEFAULT_VEHTYPE" speedFactor="0.89" vaporized=""/>
    <tripinfo id="f_1.12" depart="36.00" departLane="E0_0" departPos="5.10" departSpeed="0.00" departDelay="12.00" arrival="72.00" arrivalLane="E2_0" arrivalPos="83.74" arrivalSpeed="10.91" duration="36.00" routeLength="172.66" waitingTime="11.00" waitingCount="1" stopTime="0.00" timeLoss="21.24" rerouteNo="0" devices="tripinfo_f_1.12" vType="DEFAULT_VEHTYPE" speedFactor="0.87" vaporized=""/>
    <tripinfo id="f_1.13" depart="39.00" departLane="E0_0" departPos="5.10" departSpeed="0.00" departDelay="13.00" arrival="72.00" arrivalLane="E2_1" arrivalPos="83.74" arrivalSpeed="12.28" duration="33.00" routeLength="172.66" waitingTime="8.00" waitingCount="1" stopTime="0.00" timeLoss="19.53" rerouteNo="0" devices="tripinfo_f_1.13" vType="DEFAULT_VEHTYPE" speedFactor="0.95" vaporized=""/>
    <tripinfo id="f_1.14" depart="42.00" departLane="E0_0" departPos="5.10" departSpeed="0.00" departDelay="14.00" arrival="74.00" arrivalLane="E2_0" arrivalPos="83.74" arrivalSpeed="12.82" duration="32.00" routeLength="172.66" waitingTime="7.00" waitingCount="1" stopTime="0.00" timeLoss="17.70" rerouteNo="0" devices="tripinfo_f_1.14" vType="DEFAULT_VEHTYPE" speedFactor="0.93" vaporized=""/>
    <tripinfo id="f_1.15" depart="45.00" departLane="E0_0" departPos="5.10" departSpeed="0.00" departDelay="15.00" arrival="74.00" arrivalLane="E2_1" arrivalPos="83.74" arrivalSpeed="15.09" duration="29.00" routeLength="172.66" waitingTime="5.00" waitingCount="1" stopTime="0.00" timeLoss="17.37" rerouteNo="0" devices="tripinfo_f_1.15" vType="DEFAULT_VEHTYPE" speedFactor="1.15" vaporized=""/>
    <tripinfo id="f_1.16" depart="48.00" departLane="E0_0" departPos="5.10" departSpeed="0.00" departDelay="16.00" arrival="75.00" arrivalLane="E2_0" arrivalPos="83.74" arrivalSpeed="15.14" duration="27.00" routeLength="172.66" waitingTime="4.00" waitingCount="1" stopTime="0.00" timeLoss="16.08" rerouteNo="0" devices="tripinfo_f_1.16" vType="DEFAULT_VEHTYPE" speedFactor="1.17" vaporized=""/>
    <tripinfo id="f_1.17" depart="51.00" departLane="E0_0" departPos="5.10" departSpeed="0.00" departDelay="17.00" arrival="75.00" arrivalLane="E2_1" arrivalPos="83.74" arrivalSpeed="12.88" duration="24.00" routeLength="172.66" waitingTime="1.00" waitingCount="1" stopTime="0.00" timeLoss="11.72" rerouteNo="0" devices="tripinfo_f_1.17" vType="DEFAULT_VEHTYPE" speedFactor="1.02" vaporized=""/>
    <tripinfo id="f_1.18" depart="54.00" departLane="E0_0" departPos="5.10" departSpeed="0.00" departDelay="18.00" arrival="77.00" arrivalLane="E2_0" arrivalPos="83.74" arrivalSpeed="15.69" duration="23.00" routeLength="172.66" waitingTime="0.00" waitingCount="0" stopTime="0.00" timeLoss="11.78" rerouteNo="0" devices="tripinfo_f_1.18" vType="DEFAULT_VEHTYPE" speedFactor="1.18" vaporized=""/>
    <tripinfo id="f_1.19" depart="57.00" departLane="E0_0" departPos="5.10" departSpeed="0.00" departDelay="19.00" arrival="78.00" arrivalLane="E2_1" arrivalPos="83.74" arrivalSpeed="12.06" duration="21.00" routeLength="172.66" waitingTime="0.00" waitingCount="0" stopTime="0.00" timeLoss="6.35" rerouteNo="0" devices="tripinfo_f_1.19" vType="DEFAULT_VEHTYPE" speedFactor="0.90" vaporized=""/>
    <tripinfo id="f_1.20" depart="59.00" departLane="E0_0" departPos="5.10" departSpeed="0.00" departDelay="19.00" arrival="79.00" arrivalLane="E2_0" arrivalPos="83.74" arrivalSpeed="13.19" duration="20.00" routeLength="172.66" waitingTime="0.00" waitingCount="0" stopTime="0.00" timeLoss="6.40" rerouteNo="0" devices="tripinfo_f_1.20" vType="DEFAULT_VEHTYPE" speedFactor="0.96" vaporized=""/>
    <tripinfo id="f_1.21" depart="62.00" departLane="E0_0" departPos="5.10" departSpeed="0.00" departDelay="20.00" arrival="79.00" arrivalLane="E2_1" arrivalPos="83.74" arrivalSpeed="13.50" duration="17.00" routeLength="172.66" waitingTime="0.00" waitingCount="0" stopTime="0.00" timeLoss="4.97" rerouteNo="0" devices="tripinfo_f_1.21" vType="DEFAULT_VEHTYPE" speedFactor="1.04" vaporized=""/>
    <tripinfo id="f_1.22" depart="65.00" departLane="E0_0" departPos="5.10" departSpeed="0.00" departDelay="21.00" arrival="81.00" arrivalLane="E2_0" arrivalPos="83.74" arrivalSpeed="14.22" duration="16.00" routeLength="172.66" waitingTime="0.00" waitingCount="0" stopTime="0.00" timeLoss="4.20" rerouteNo="0" devices="tripinfo_f_1.22" vType="DEFAULT_VEHTYPE" speedFactor="1.09" vaporized=""/>
    <tripinfo id="f_1.23" depart="68.00" departLane="E0_0" departPos="5.10" departSpeed="0.00" departDelay="22.00" arrival="86.00" arrivalLane="E2_0" arrivalPos="83.74" arrivalSpeed="12.20" duration="18.00" routeLength="172.66" waitingTime="0.00" waitingCount="0" stopTime="0.00" timeLoss="3.62" rerouteNo="0" devices="tripinfo_f_1.23" vType="DEFAULT_VEHTYPE" speedFactor="0.90" vaporized=""/>
    <tripinfo id="f_0.16" depart="47.00" departLane="E1_0" departPos="5.10" departSpeed="0.00" departDelay="15.00" arrival="91.00" arrivalLane="E2_1" arrivalPos="83.74" arrivalSpeed="13.16" duration="44.00" routeLength="173.67" waitingTime="23.00" waitingCount="1" stopTime="0.00" timeLoss="31.09" rerouteNo="0" devices="tripinfo_f_0.16" vType="DEFAULT_VEHTYPE" speedFactor="1.01" vaporized=""/>
    <tripinfo id="f_0.15" depart="44.00" departLane="E1_0" departPos="5.10" departSpeed="0.00" departDelay="14.00" arrival="92.00" arrivalLane="E2_0" arrivalPos="83.74" arrivalSpeed="15.99" duration="48.00" routeLength="178.85" waitingTime="24.00" waitingCount="1" stopTime="0.00" timeLoss="36.05" rerouteNo="0" devices="tripinfo_f_0.15" vType="DEFAULT_VEHTYPE" speedFactor="1.18" vaporized=""/>
    <tripinfo id="f_0.17" depart="50.00" departLane="E1_0" departPos="5.10" departSpeed="0.00" departDelay="16.00" arrival="94.00" arrivalLane="E2_0" arrivalPos="83.74" arrivalSpeed="12.60" duration="44.00" routeLength="178.85" waitingTime="21.00" waitingCount="1" stopTime="0.00" timeLoss="30.38" rerouteNo="0" devices="tripinfo_f_0.17" vType="DEFAULT_VEHTYPE" speedFactor="0.99" vaporized=""/>
    <tripinfo id="f_0.18" depart="53.00" departLane="E1_0" departPos="5.10" departSpeed="0.00" departDelay="17.00" arrival="94.00" arrivalLane="E2_1" arrivalPos="83.74" arrivalSpeed="12.37" duration="41.00" routeLength="173.67" waitingTime="18.00" waitingCount="1" stopTime="0.00" timeLoss="27.20" rerouteNo="0" devices="tripinfo_f_0.18" vType="DEFAULT_VEHTYPE" speedFactor="0.97" vaporized=""/>
    <tripinfo id="f_0.19" depart="56.00" departLane="E1_0" departPos="5.10" departSpeed="0.00" departDelay="18.00" arrival="96.00" arrivalLane="E2_0" arrivalPos="83.74" arrivalSpeed="15.26" duration="40.00" routeLength="178.85" waitingTime="18.00" waitingCount="1" stopTime="0.00" timeLoss="27.47" rerouteNo="0" devices="tripinfo_f_0.19" vType="DEFAULT_VEHTYPE" speedFactor="1.10" vaporized=""/>
    <tripinfo id="f_0.20" depart="59.00" departLane="E1_0" departPos="5.10" departSpeed="0.00" departDelay="19.00" arrival="96.00" arrivalLane="E2_1" arrivalPos="83.74" arrivalSpeed="13.28" duration="37.00" routeLength="173.67" waitingTime="13.00" waitingCount="1" stopTime="0.00" timeLoss="24.28" rerouteNo="0" devices="tripinfo_f_0.20" vType="DEFAULT_VEHTYPE" speedFactor="1.03" vaporized=""/>
    <tripinfo id="f_0.21" depart="62.00" departLane="E1_0" departPos="5.10" departSpeed="0.00" departDelay="20.00" arrival="98.00" arrivalLane="E2_0" arrivalPos="83.74" arrivalSpeed="15.05" duration="36.00" routeLength="178.85" waitingTime="12.00" waitingCount="1" stopTime="0.00" timeLoss="23.05" rerouteNo="0" devices="tripinfo_f_0.21" vType="DEFAULT_VEHTYPE" speedFactor="1.09" vaporized=""/>
    <tripinfo id="f_0.22" depart="65.00" departLane="E1_0" departPos="5.10" departSpeed="0.00" departDelay="21.00" arrival="99.00" arrivalLane="E2_1" arrivalPos="83.74" arrivalSpeed="14.32" duration="34.00" routeLength="173.67" waitingTime="8.00" waitingCount="1" stopTime="0.00" timeLoss="20.52" rerouteNo="0" devices="tripinfo_f_0.22" vType="DEFAULT_VEHTYPE" speedFactor="1.04" vaporized=""/>
    <tripinfo id="f_0.23" depart="68.00" departLane="E1_0" departPos="5.10" departSpeed="0.00" departDelay="22.00" arrival="101.00" arrivalLane="E2_0" arrivalPos="83.74" arrivalSpeed="13.64" duration="33.00" routeLength="178.85" waitingTime="7.00" waitingCount="1" stopTime="0.00" timeLoss="18.96" rerouteNo="0" devices="tripinfo_f_0.23" vType="DEFAULT_VEHTYPE" speedFactor="1.00" vaporized=""/>
    <tripinfo id="f_0.24" depart="71.00" departLane="E1_0" departPos="5.10" departSpeed="0.00" departDelay="23.00" arrival="103.00" arrivalLane="E2_1" arrivalPos="83.74" arrivalSpeed="11.14" duration="32.00" routeLength="173.67" waitingTime="5.00" waitingCount="1" stopTime="0.00" timeLoss="16.36" rerouteNo="0" devices="tripinfo_f_0.24" vType="DEFAULT_VEHTYPE" speedFactor="0.88" vaporized=""/>
    <tripinfo id="f_0.25" depart="74.00" departLane="E1_0" departPos="5.10" departSpeed="0.00" departDelay="24.00" arrival="105.00" arrivalLane="E2_0" arrivalPos="83.74" arrivalSpeed="11.69" duration="31.00" routeLength="178.85" waitingTime="4.00" waitingCount="1" stopTime="0.00" timeLoss="14.81" rerouteNo="0" devices="tripinfo_f_0.25" vType="DEFAULT_VEHTYPE" speedFactor="0.85" vaporized=""/>
    <tripinfo id="f_0.26" depart="77.00" departLane="E1_0" departPos="5.10" departSpeed="0.00" departDelay="25.00" arrival="105.00" arrivalLane="E2_1" arrivalPos="83.74" arrivalSpeed="13.39" duration="28.00" routeLength="173.67" waitingTime="0.00" waitingCount="0" stopTime="0.00" timeLoss="14.52" rerouteNo="0" devices="tripinfo_f_0.26" vType="DEFAULT_VEHTYPE" speedFactor="1.02" vaporized=""/>
    <tripinfo id="f_0.27" depart="80.00" departLane="E1_0" departPos="5.10" departSpeed="0.00" departDelay="26.00" arrival="107.00" arrivalLane="E2_0" arrivalPos="83.74" arrivalSpeed="13.13" duration="27.00" routeLength="178.85" waitingTime="0.00" waitingCount="0" stopTime="0.00" timeLoss="12.76" rerouteNo="0" devices="tripinfo_f_0.27" vType="DEFAULT_VEHTYPE" speedFactor="1.00" vaporized=""/>
    <tripinfo id="f_0.28" depart="83.00" departLane="E1_0" departPos="5.10" departSpeed="0.00" departDelay="27.00" arrival="108.00" arrivalLane="E2_1" arrivalPos="83.74" arrivalSpeed="12.37" duration="25.00" routeLength="173.67" waitingTime="0.00" waitingCount="0" stopTime="0.00" timeLoss="10.06" rerouteNo="0" devices="tripinfo_f_0.28" vType="DEFAULT_VEHTYPE" speedFactor="0.90" vaporized=""/>
    <tripinfo id="f_0.30" depart="89.00" departLane="E1_0" departPos="5.10" departSpeed="0.00" departDelay="29.00" arrival="109.00" arrivalLane="E2_0" arrivalPos="83.74" arrivalSpeed="14.81" duration="20.00" routeLength="178.85" waitingTime="0.00" waitingCount="0" stopTime="0.00" timeLoss="6.46" rerouteNo="0" devices="tripinfo_f_0.30" vType="DEFAULT_VEHTYPE" speedFactor="1.08" vaporized=""/>
    <tripinfo id="f_0.29" depart="86.00" departLane="E1_0" departPos="5.10" departSpeed="0.00" departDelay="28.00" arrival="110.00" arrivalLane="E2_1" arrivalPos="83.74" arrivalSpeed="14.10" duration="24.00" routeLength="173.67" waitingTime="0.00" waitingCount="0" stopTime="0.00" timeLoss="10.75" rerouteNo="0" devices="tripinfo_f_0.29" vType="DEFAULT_VEHTYPE" speedFactor="1.02" vaporized=""/>
    <tripinfo id="f_0.31" depart="93.00" departLane="E1_0" departPos="5.10" departSpeed="0.00" departDelay="31.00" arrival="112.00" arrivalLane="E2_0" arrivalPos="83.74" arrivalSpeed="14.07" duration="19.00" routeLength="178.85" waitingTime="0.00" waitingCount="0" stopTime="0.00" timeLoss="5.65" rerouteNo="0" devices="tripinfo_f_0.31" vType="DEFAULT_VEHTYPE" speedFactor="1.02" vaporized=""/>
    <tripinfo id="f_0.32" depart="96.00" departLane="E1_0" departPos="5.10" departSpeed="0.00" departDelay="32.00" arrival="116.00" arrivalLane="E2_0" arrivalPos="83.74" arrivalSpeed="11.77" duration="20.00" routeLength="178.85" waitingTime="0.00" waitingCount="0" stopTime="0.00" timeLoss="5.45" rerouteNo="0" devices="tripinfo_f_0.32" vType="DEFAULT_VEHTYPE" speedFactor="0.94" vaporized=""/>
    <tripinfo id="f_1.25" depart="74.00" departLane="E0_0" departPos="5.10" departSpeed="0.00" departDelay="24.00" arrival="119.00" arrivalLane="E2_1" arrivalPos="83.74" arrivalSpeed="16.22" duration="45.00" routeLength="172.66" waitingTime="24.00" waitingCount="1" stopTime="0.00" timeLoss="33.99" rerouteNo="0" devices="tripinfo_f_1.25" vType="DEFAULT_VEHTYPE" speedFactor="1.17" vaporized=""/>
    <tripinfo id="f_1.27" depart="80.00" departLane="E0_0" departPos="5.10" departSpeed="0.00" departDelay="26.00" arrival="121.00" arrivalLane="E2_1" arrivalPos="83.74" arrivalSpeed="13.36" duration="41.00" routeLength="172.66" waitingTime="18.00" waitingCount="1" stopTime="0.00" timeLoss="28.50" rerouteNo="0" devices="tripinfo_f_1.27" vType="DEFAULT_VEHTYPE" speedFactor="1.00" vaporized=""/>
    <tripinfo id="f_1.24" depart="71.00" departLane="E0_0" departPos="5.10" departSpeed="0.00" departDelay="23.00" arrival="122.00" arrivalLane="E2_0" arrivalPos="83.74" arrivalSpeed="11.05" duration="51.00" routeLength="172.66" waitingTime="25.00" waitingCount="1" stopTime="0.00" timeLoss="35.57" rerouteNo="0" devices="tripinfo_f_1.24" vType="DEFAULT_VEHTYPE" speedFactor="0.85" vaporized=""/>
    <tripinfo id="f_1.26" depart="77.00" departLane="E0_0" departPos="5.10" departSpeed="0.00" departDelay="25.00" arrival="123.00" arrivalLane="E2_0" arrivalPos="83.74" arrivalSpeed="12.99" duration="46.00" routeLength="172.66" waitingTime="22.00" waitingCount="1" stopTime="0.00" timeLoss="34.55" rerouteNo="0" devices="tripinfo_f_1.26" vType="DEFAULT_VEHTYPE" speedFactor="1.10" vaporized=""/>
    <tripinfo id="f_1.29" depart="86.00" departLane="E0_0" departPos="5.10" departSpeed="0.00" departDelay="28.00" arrival="123.00" arrivalLane="E2_1" arrivalPos="83.74" arrivalSpeed="13.42" duration="37.00" routeLength="172.66" waitingTime="14.00" waitingCount="1" stopTime="0.00" timeLoss="23.97" rerouteNo="0" devices="tripinfo_f_1.29" vType="DEFAULT_VEHTYPE" speedFactor="0.97" vaporized=""/>
    <tripinfo id="f_1.28" depart="83.00" departLane="E0_0" departPos="5.10" departSpeed="0.00" departDelay="27.00" arrival="125.00" arrivalLane="E2_0" arrivalPos="83.74" arrivalSpeed="15.26" duration="42.00" routeLength="172.66" waitingTime="17.00" waitingCount="1" stopTime="0.00" timeLoss="30.57" rerouteNo="0" devices="tripinfo_f_1.28" vType="DEFAULT_VEHTYPE" speedFactor="1.14" vaporized=""/>
    <tripinfo id="f_1.31" depart="92.00" departLane="E0_0" departPos="5.10" departSpeed="0.00" departDelay="30.00" arrival="125.00" arrivalLane="E2_1" arrivalPos="83.74" arrivalSpeed="12.69" duration="33.00" routeLength="172.66" waitingTime="12.00" waitingCount="1" stopTime="0.00" timeLoss="20.19" rerouteNo="0" devices="tripinfo_f_1.31" vType="DEFAULT_VEHTYPE" speedFactor="0.99" vaporized=""/>
    <tripinfo id="f_1.30" depart="89.00" departLane="E0_0" departPos="5.10" departSpeed="0.00" departDelay="29.00" arrival="127.00" arrivalLane="E2_0" arrivalPos="83.74" arrivalSpeed="14.80" duration="38.00" routeLength="172.66" waitingTime="14.00" waitingCount="1" stopTime="0.00" timeLoss="26.09" rerouteNo="0" devices="tripinfo_f_1.30" vType="DEFAULT_VEHTYPE" speedFactor="1.12" vaporized=""/>
    <tripinfo id="f_1.33" depart="98.00" departLane="E0_0" departPos="5.10" departSpeed="0.00" departDelay="32.00" arrival="128.00" arrivalLane="E2_1" arrivalPos="83.74" arrivalSpeed="12.11" duration="30.00" routeLength="172.66" waitingTime="6.00" waitingCount="1" stopTime="0.00" timeLoss="16.05" rerouteNo="0" devices="tripinfo_f_1.33" vType="DEFAULT_VEHTYPE" speedFactor="0.91" vaporized=""/>
    <tripinfo id="f_1.32" depart="95.00" departLane="E0_0" departPos="5.10" departSpeed="0.00" departDelay="31.00" arrival="129.00" arrivalLane="E2_0" arrivalPos="83.74" arrivalSpeed="11.18" duration="34.00" routeLength="172.66" waitingTime="8.00" waitingCount="1" stopTime="0.00" timeLoss="19.55" rerouteNo="0" devices="tripinfo_f_1.32" vType="DEFAULT_VEHTYPE" speedFactor="0.88" vaporized=""/>
    <tripinfo id="f_1.35" depart="104.00" departLane="E0_0" departPos="5.10" departSpeed="0.00" departDelay="34.00" arrival="130.00" arrivalLane="E2_1" arrivalPos="83.74" arrivalSpeed="12.62" duration="26.00" routeLength="172.66" waitingTime="1.00" waitingCount="1" stopTime="0.00" timeLoss="12.63" rerouteNo="0" devices="tripinfo_f_1.35" vType="DEFAULT_VEHTYPE" speedFactor="0.97" vaporized=""/>
    <tripinfo id="f_1.34" depart="101.00" departLane="E0_0" departPos="5.10" departSpeed="0.00" departDelay="33.00" arrival="131.00" arrivalLane="E2_0" arrivalPos="83.74" arrivalSpeed="13.24" duration="30.00" routeLength="172.66" waitingTime="5.00" waitingCount="1" stopTime="0.00" timeLoss="17.08" rerouteNo="0" devices="tripinfo_f_1.34" vType="DEFAULT_VEHTYPE" speedFactor="1.02" vaporized=""/>
    <tripinfo id="f_1.36" depart="107.00" departLane="E0_0" departPos="5.10" departSpeed="0.00" departDelay="35.00" arrival="132.00" arrivalLane="E2_0" arrivalPos="83.74" arrivalSpeed="13.92" duration="25.00" routeLength="172.66" waitingTime="0.00" waitingCount="0" stopTime="0.00" timeLoss="13.04" rerouteNo="0" devices="tripinfo_f_1.36" vType="DEFAULT_VEHTYPE" speedFactor="1.06" vaporized=""/>
    <tripinfo id="f_1.37" depart="110.00" departLane="E0_0" departPos="5.10" departSpeed="0.00" departDelay="36.00" arrival="132.00" arrivalLane="E2_1" arrivalPos="83.74" arrivalSpeed="12.84" duration="22.00" routeLength="172.66" waitingTime="0.00" waitingCount="0" stopTime="0.00" timeLoss="8.61" rerouteNo="0" devices="tripinfo_f_1.37" vType="DEFAULT_VEHTYPE" speedFactor="0.98" vaporized=""/>
    <tripinfo id="f_1.39" depart="116.00" departLane="E0_0" departPos="5.10" departSpeed="0.00" departDelay="38.00" arrival="133.00" arrivalLane="E2_1" arrivalPos="83.74" arrivalSpeed="14.70" duration="17.00" routeLength="172.66" waitingTime="0.00" waitingCount="0" stopTime="0.00" timeLoss="5.33" rerouteNo="0" devices="tripinfo_f_1.39" vType="DEFAULT_VEHTYPE" speedFactor="1.09" vaporized=""/>
    <tripinfo id="f_1.38" depart="113.00" departLane="E0_0" departPos="5.10" departSpeed="0.00" departDelay="37.00" arrival="134.00" arrivalLane="E2_0" arrivalPos="83.74" arrivalSpeed="12.43" duration="21.00" routeLength="172.66" waitingTime="0.00" waitingCount="0" stopTime="0.00" timeLoss="8.07" rerouteNo="0" devices="tripinfo_f_1.38" vType="DEFAULT_VEHTYPE" speedFactor="0.98" vaporized=""/>
    <tripinfo id="f_1.40" depart="119.00" departLane="E0_0" departPos="5.10" departSpeed="0.00" departDelay="39.00" arrival="136.00" arrivalLane="E2_0" arrivalPos="83.74" arrivalSpeed="12.99" duration="17.00" routeLength="172.66" waitingTime="0.00" waitingCount="0" stopTime="0.00" timeLoss="4.05" rerouteNo="0" devices="tripinfo_f_1.40" vType="DEFAULT_VEHTYPE" speedFactor="1.00" vaporized=""/>