<?xml version="1.0" encoding="UTF-8"?>

<!-- generated on 2025-04-06 23:50:50 by Eclipse SUMO sumo Version v1_21_0+0707-ca487ebdee8
<sumoConfiguration xmlns:xsi="http://www.w3.org/2001/XMLSchema-instance" xsi:noNamespaceSchemaLocation="http://sumo.dlr.de/xsd/sumoConfiguration.xsd">

    <input>
        <net-file value="nt1.net.xml"/>
        <route-files value="nt1.rou.xml"/>
        <additional-files value="nt1.add.xml"/>
    </input>

    <output>
        <tripinfo-output value="tripinfo5.xml"/>
    </output>

    <time>
        <begin value="0"/>
        <end value="3600"/>
    </time>

</sumoConfiguration>
-->

<tripinfos xmlns:xsi="http://www.w3.org/2001/XMLSchema-instance" xsi:noNamespaceSchemaLocation="http://sumo.dlr.de/xsd/tripinfo_file.xsd">
    <tripinfo id="f_1.0" depart="0.00" departLane="E0_0" departPos="5.10" departSpeed="0.00" departDelay="0.00" arrival="17.00" arrivalLane="E2_0" arrivalPos="83.74" arrivalSpeed="12.29" duration="17.00" routeLength="172.66" waitingTime="0.00" waitingCount="0" stopTime="0.00" timeLoss="3.32" rerouteNo="0" devices="tripinfo_f_1.0" vType="DEFAULT_VEHTYPE" speedFactor="0.94" vaporized=""/>
    <tripinfo id="f_1.1" depart="3.00" departLane="E0_0" departPos="5.10" departSpeed="0.00" departDelay="1.00" arrival="19.00" arrivalLane="E2_0" arrivalPos="83.74" arrivalSpeed="14.77" duration="16.00" routeLength="172.66" waitingTime="0.00" waitingCount="0" stopTime="0.00" timeLoss="4.51" rerouteNo="0" devices="tripinfo_f_1.1" vType="DEFAULT_VEHTYPE" speedFactor="1.08" vaporized=""/>
    <tripinfo id="f_0.0" depart="0.00" departLane="E1_0" departPos="5.10" departSpeed="0.00" departDelay="0.00" arrival="27.00" arrivalLane="E2_1" arrivalPos="83.74" arrivalSpeed="14.64" duration="27.00" routeLength="173.67" waitingTime="6.00" waitingCount="1" stopTime="0.00" timeLoss="14.21" rerouteNo="0" devices="tripinfo_f_0.0" vType="DEFAULT_VEHTYPE" speedFactor="1.06" vaporized=""/>
    <tripinfo id="f_0.1" depart="3.00" departLane="E1_0" departPos="5.10" departSpeed="0.00" departDelay="1.00" arrival="28.00" arrivalLane="E2_0" arrivalPos="83.74" arrivalSpeed="13.18" duration="25.00" routeLength="178.85" waitingTime="2.00" waitingCount="1" stopTime="0.00" timeLoss="11.03" rerouteNo="0" devices="tripinfo_f_0.1" vType="DEFAULT_VEHTYPE" speedFactor="1.01" vaporized=""/>
    <tripinfo id="f_0.3" depart="9.00" departLane="E1_0" departPos="5.10" departSpeed="0.00" departDelay="3.00" arrival="29.00" arrivalLane="E2_1" arrivalPos="83.74" arrivalSpeed="13.88" duration="20.00" routeLength="173.67" waitingTime="0.00" waitingCount="0" stopTime="0.00" timeLoss="7.26" rerouteNo="0" devices="tripinfo_f_0.3" vType="DEFAULT_VEHTYPE" speedFactor="1.05" vaporized=""/>
    <tripinfo id="f_0.2" depart="6.00" departLane="E1_0" departPos="5.10" departSpeed="0.00" departDelay="2.00" arrival="30.00" arrivalLane="E2_0" arrivalPos="83.74" arrivalSpeed="14.00" duration="24.00" routeLength="178.85" waitingTime="0.00" waitingCount="0" stopTime="0.00" timeLoss="10.41" rerouteNo="0" devices="tripinfo_f_0.2" vType="DEFAULT_VEHTYPE" speedFactor="1.03" vaporized=""/>
    <tripinfo id="f_0.4" depart="12.00" departLane="E1_0" departPos="5.10" departSpeed="0.00" departDelay="4.00" arrival="33.00" arrivalLane="E2_0" arrivalPos="83.74" arrivalSpeed="12.59" duration="21.00" routeLength="178.85" waitingTime="0.00" waitingCount="0" stopTime="0.00" timeLoss="6.17" rerouteNo="0" devices="tripinfo_f_0.4" vType="DEFAULT_VEHTYPE" speedFactor="0.94" vaporized=""/>
    <tripinfo id="f_0.5" depart="15.00" departLane="E1_0" departPos="5.10" departSpeed="0.00" departDelay="5.00" arrival="34.00" arrivalLane="E2_1" arrivalPos="83.74" arrivalSpeed="14.09" duration="19.00" routeLength="173.67" waitingTime="0.00" waitingCount="0" stopTime="0.00" timeLoss="6.97" rerouteNo="0" devices="tripinfo_f_0.5" vType="DEFAULT_VEHTYPE" speedFactor="1.09" vaporized=""/>
    <tripinfo id="f_0.6" depart="18.00" departLane="E1_0" departPos="5.10" departSpeed="0.00" departDelay="6.00" arrival="37.00" arrivalLane="E2_0" arrivalPos="83.74" arrivalSpeed="14.43" duration="19.00" routeLength="178.85" waitingTime="0.00" waitingCount="0" stopTime="0.00" timeLoss="5.19" rerouteNo="0" devices="tripinfo_f_0.6" vType="DEFAULT_VEHTYPE" speedFactor="1.05" vaporized=""/>
    <tripinfo id="f_0.7" depart="21.00" departLane="E1_0" departPos="5.10" departSpeed="0.00" departDelay="7.00" arrival="40.00" arrivalLane="E2_0" arrivalPos="83.74" arrivalSpeed="13.74" duration="19.00" routeLength="178.85" waitingTime="0.00" waitingCount="0" stopTime="0.00" timeLoss="5.08" rerouteNo="0" devices="tripinfo_f_0.7" vType="DEFAULT_VEHTYPE" speedFactor="0.99" vaporized=""/>
    <tripinfo id="f_1.3" depart="9.00" departLane="E0_0" departPos="5.10" departSpeed="0.00" departDelay="3.00" arrival="47.00" arrivalLane="E2_1" arrivalPos="83.74" arrivalSpeed="11.41" duration="38.00" routeLength="172.66" waitingTime="16.00" waitingCount="1" stopTime="0.00" timeLoss="23.68" rerouteNo="0" devices="tripinfo_f_1.3" vType="DEFAULT_VEHTYPE" speedFactor="0.89" vaporized=""/>
    <tripinfo id="f_1.2" depart="6.00" departLane="E0_0" departPos="5.10" departSpeed="0.00" departDelay="2.00" arrival="48.00" arrivalLane="E2_0" arrivalPos="83.74" arrivalSpeed="11.17" duration="42.00" routeLength="172.66" waitingTime="18.00" waitingCount="1" stopTime="0.00" timeLoss="26.40" rerouteNo="0" devices="tripinfo_f_1.2" vType="DEFAULT_VEHTYPE" speedFactor="0.83" vaporized=""/>
    <tripinfo id="f_1.5" depart="15.00" departLane="E0_0" departPos="5.10" departSpeed="0.00" departDelay="5.00" arrival="49.00" arrivalLane="E2_1" arrivalPos="83.74" arrivalSpeed="13.01" duration="34.00" routeLength="172.66" waitingTime="10.00" waitingCount="1" stopTime="0.00" timeLoss="21.31" rerouteNo="0" devices="tripinfo_f_1.5" vType="DEFAULT_VEHTYPE" speedFactor="1.03" vaporized=""/>
    <tripinfo id="f_1.4" depart="12.00" departLane="E0_0" departPos="5.10" departSpeed="0.00" departDelay="4.00" arrival="50.00" arrivalLane="E2_0" arrivalPos="83.74" arrivalSpeed="11.56" duration="38.00" routeLength="172.66" waitingTime="14.00" waitingCount="1" stopTime="0.00" timeLoss="22.71" rerouteNo="0" devices="tripinfo_f_1.4" vType="DEFAULT_VEHTYPE" speedFactor="0.86" vaporized=""/>
    <tripinfo id="f_1.6" depart="18.00" departLane="E0_0" departPos="5.10" departSpeed="0.00" departDelay="6.00" arrival="51.00" arrivalLane="E2_0" arrivalPos="83.74" arrivalSpeed="13.88" duration="33.00" routeLength="172.66" waitingTime="11.00" waitingCount="1" stopTime="0.00" timeLoss="21.83" rerouteNo="0" devices="tripinfo_f_1.6" vType="DEFAULT_VEHTYPE" speedFactor="1.12" vaporized=""/>
    <tripinfo id="f_1.7" depart="21.00" departLane="E0_0" departPos="5.10" departSpeed="0.00" departDelay="7.00" arrival="51.00" arrivalLane="E2_1" arrivalPos="83.74" arrivalSpeed="12.28" duration="30.00" routeLength="172.66" waitingTime="6.00" waitingCount="1" stopTime="0.00" timeLoss="16.26" rerouteNo="0" devices="tripinfo_f_1.7" vType="DEFAULT_VEHTYPE" speedFactor="0.93" vaporized=""/>
    <tripinfo id="f_1.8" depart="24.00" departLane="E0_0" departPos="5.10" departSpeed="0.00" departDelay="8.00" arrival="53.00" arrivalLane="E2_0" arrivalPos="83.74" arrivalSpeed="12.70" duration="29.00" routeLength="172.66" waitingTime="5.00" waitingCount="1" stopTime="0.00" timeLoss="15.75" rerouteNo="0" devices="tripinfo_f_1.8" vType="DEFAULT_VEHTYPE" speedFactor="0.94" vaporized=""/>
    <tripinfo id="f_1.9" depart="27.00" departLane="E0_0" departPos="5.10" departSpeed="0.00" departDelay="9.00" arrival="53.00" arrivalLane="E2_1" arrivalPos="83.74" arrivalSpeed="15.08" duration="26.00" routeLength="172.66" waitingTime="4.00" waitingCount="1" stopTime="0.00" timeLoss="14.50" rerouteNo="0" devices="tripinfo_f_1.9" vType="DEFAULT_VEHTYPE" speedFactor="1.16" vaporized=""/>
    <tripinfo id="f_1.10" depart="30.00" departLane="E0_0" departPos="5.10" departSpeed="0.00" departDelay="10.00" arrival="55.00" arrivalLane="E2_0" arrivalPos="83.74" arrivalSpeed="13.65" duration="25.00" routeLength="172.66" waitingTime="1.00" waitingCount="1" stopTime="0.00" timeLoss="12.33" rerouteNo="0" devices="tripinfo_f_1.10" vType="DEFAULT_VEHTYPE" speedFactor="1.01" vaporized=""/>
    <tripinfo id="f_1.11" depart="33.00" departLane="E0_0" departPos="5.10" departSpeed="0.00" departDelay="11.00" arrival="55.00" arrivalLane="E2_1" arrivalPos="83.74" arrivalSpeed="11.86" duration="22.00" routeLength="172.66" waitingTime="0.00" waitingCount="0" stopTime="0.00" timeLoss="7.78" rerouteNo="0" devices="tripinfo_f_1.11" vType="DEFAULT_VEHTYPE" speedFactor="0.89" vaporized=""/>
    <tripinfo id="f_1.12" depart="36.00" departLane="E0_0" departPos="5.10" departSpeed="0.00" departDelay="12.00" arrival="57.00" arrivalLane="E2_0" arrivalPos="83.74" arrivalSpeed="11.83" duration="21.00" routeLength="172.66" waitingTime="0.00" waitingCount="0" stopTime="0.00" timeLoss="6.76" rerouteNo="0" devices="tripinfo_f_1.12" vType="DEFAULT_VEHTYPE" speedFactor="0.87" vaporized=""/>
    <tripinfo id="f_1.13" depart="39.00" departLane="E0_0" departPos="5.10" departSpeed="0.00" departDelay="13.00" arrival="57.00" arrivalLane="E2_1" arrivalPos="83.74" arrivalSpeed="12.20" duration="18.00" routeLength="172.66" waitingTime="0.00" waitingCount="0" stopTime="0.00" timeLoss="4.45" rerouteNo="0" devices="tripinfo_f_1.13" vType="DEFAULT_VEHTYPE" speedFactor="0.95" vaporized=""/>
    <tripinfo id="f_1.14" depart="42.00" departLane="E0_0" departPos="5.10" departSpeed="0.00" departDelay="14.00" arrival="59.00" arrivalLane="E2_0" arrivalPos="83.74" arrivalSpeed="11.81" duration="17.00" routeLength="172.66" waitingTime="0.00" waitingCount="0" stopTime="0.00" timeLoss="3.43" rerouteNo="0" devices="tripinfo_f_1.14" vType="DEFAULT_VEHTYPE" speedFactor="0.93" vaporized=""/>
    <tripinfo id="f_0.9" depart="27.00" departLane="E1_0" departPos="5.10" departSpeed="0.00" departDelay="9.00" arrival="65.00" arrivalLane="E2_1" arrivalPos="83.74" arrivalSpeed="12.99" duration="38.00" routeLength="173.67" waitingTime="15.00" waitingCount="1" stopTime="0.00" timeLoss="23.69" rerouteNo="0" devices="tripinfo_f_0.9" vType="DEFAULT_VEHTYPE" speedFactor="0.94" vaporized=""/>
    <tripinfo id="f_0.8" depart="24.00" departLane="E1_0" departPos="5.10" departSpeed="0.00" departDelay="8.00" arrival="66.00" arrivalLane="E2_0" arrivalPos="83.74" arrivalSpeed="10.99" duration="42.00" routeLength="178.85" waitingTime="17.00" waitingCount="1" stopTime="0.00" timeLoss="26.14" rerouteNo="0" devices="tripinfo_f_0.8" vType="DEFAULT_VEHTYPE" speedFactor="0.88" vaporized=""/>
    <tripinfo id="f_0.11" depart="33.00" departLane="E1_0" departPos="5.10" departSpeed="0.00" departDelay="11.00" arrival="67.00" arrivalLane="E2_1" arrivalPos="83.74" arrivalSpeed="13.06" duration="34.00" routeLength="173.67" waitingTime="9.00" waitingCount="1" stopTime="0.00" timeLoss="20.30" rerouteNo="0" devices="tripinfo_f_0.11" vType="DEFAULT_VEHTYPE" speedFactor="0.97" vaporized=""/>
    <tripinfo id="f_0.10" depart="30.00" departLane="E1_0" departPos="5.10" departSpeed="0.00" departDelay="10.00" arrival="68.00" arrivalLane="E2_0" arrivalPos="83.74" arrivalSpeed="14.02" duration="38.00" routeLength="178.85" waitingTime="14.00" waitingCount="1" stopTime="0.00" timeLoss="23.98" rerouteNo="0" devices="tripinfo_f_0.10" vType="DEFAULT_VEHTYPE" speedFactor="1.02" vaporized=""/>
    <tripinfo id="f_0.12" depart="36.00" departLane="E1_0" departPos="5.10" departSpeed="0.00" departDelay="12.00" arrival="71.00" arrivalLane="E2_0" arrivalPos="83.74" arrivalSpeed="10.54" duration="35.00" routeLength="178.85" waitingTime="9.00" waitingCount="1" stopTime="0.00" timeLoss="18.47" rerouteNo="0" devices="tripinfo_f_0.12" vType="DEFAULT_VEHTYPE" speedFactor="0.83" vaporized=""/>
    <tripinfo id="f_0.13" depart="39.00" departLane="E1_0" departPos="5.10" departSpeed="0.00" departDelay="13.00" arrival="71.00" arrivalLane="E2_1" arrivalPos="83.74" arrivalSpeed="12.69" duration="32.00" routeLength="173.67" waitingTime="6.00" waitingCount="1" stopTime="0.00" timeLoss="17.11" rerouteNo="0" devices="tripinfo_f_0.13" vType="DEFAULT_VEHTYPE" speedFactor="0.92" vaporized=""/>
    <tripinfo id="f_0.14" depart="42.00" departLane="E1_0" departPos="5.10" departSpeed="0.00" departDelay="14.00" arrival="73.00" arrivalLane="E2_0" arrivalPos="83.74" arrivalSpeed="14.17" duration="31.00" routeLength="178.85" waitingTime="4.00" waitingCount="1" stopTime="0.00" timeLoss="18.63" rerouteNo="0" devices="tripinfo_f_0.14" vType="DEFAULT_VEHTYPE" speedFactor="1.13" vaporized=""/>
    <tripinfo id="f_0.15" depart="45.00" departLane="E1_0" departPos="5.10" departSpeed="0.00" departDelay="15.00" arrival="73.00" arrivalLane="E2_1" arrivalPos="83.74" arrivalSpeed="16.15" duration="28.00" routeLength="173.67" waitingTime="1.00" waitingCount="1" stopTime="0.00" timeLoss="15.94" rerouteNo="0" devices="tripinfo_f_0.15" vType="DEFAULT_VEHTYPE" speedFactor="1.18" vaporized=""/>
    <tripinfo id="f_0.16" depart="48.00" departLane="E1_0" departPos="5.10" departSpeed="0.00" departDelay="16.00" arrival="75.00" arrivalLane="E2_0" arrivalPos="83.74" arrivalSpeed="13.53" duration="27.00" routeLength="178.85" waitingTime="1.00" waitingCount="1" stopTime="0.00" timeLoss="13.10" rerouteNo="0" devices="tripinfo_f_0.16" vType="DEFAULT_VEHTYPE" speedFactor="1.01" vaporized=""/>
    <tripinfo id="f_0.17" depart="51.00" departLane="E1_0" departPos="5.10" departSpeed="0.00" departDelay="17.00" arrival="75.00" arrivalLane="E2_1" arrivalPos="83.74" arrivalSpeed="13.26" duration="24.00" routeLength="173.67" waitingTime="0.00" waitingCount="0" stopTime="0.00" timeLoss="10.91" rerouteNo="0" devices="tripinfo_f_0.17" vType="DEFAULT_VEHTYPE" speedFactor="0.99" vaporized=""/>
    <tripinfo id="f_0.18" depart="54.00" departLane="E1_0" departPos="5.10" departSpeed="0.00" departDelay="18.00" arrival="77.00" arrivalLane="E2_0" arrivalPos="83.74" arrivalSpeed="12.78" duration="23.00" routeLength="178.85" waitingTime="0.00" waitingCount="0" stopTime="0.00" timeLoss="8.68" rerouteNo="0" devices="tripinfo_f_0.18" vType="DEFAULT_VEHTYPE" speedFactor="0.97" vaporized=""/>
    <tripinfo id="f_0.19" depart="57.00" departLane="E1_0" departPos="5.10" departSpeed="0.00" departDelay="19.00" arrival="77.00" arrivalLane="E2_1" arrivalPos="83.74" arrivalSpeed="15.09" duration="20.00" routeLength="173.67" waitingTime="0.00" waitingCount="0" stopTime="0.00" timeLoss="7.96" rerouteNo="0" devices="tripinfo_f_0.19" vType="DEFAULT_VEHTYPE" speedFactor="1.10" vaporized=""/>
    <tripinfo id="f_1.15" depart="45.00" departLane="E0_0" departPos="5.10" departSpeed="0.00" departDelay="15.00" arrival="83.00" arrivalLane="E2_0" arrivalPos="83.74" arrivalSpeed="15.94" duration="38.00" routeLength="172.66" waitingTime="17.00" waitingCount="1" stopTime="0.00" timeLoss="27.14" rerouteNo="0" devices="tripinfo_f_1.15" vType="DEFAULT_VEHTYPE" speedFactor="1.15" vaporized=""/>
    <tripinfo id="f_1.16" depart="48.00" departLane="E0_0" departPos="5.10" departSpeed="0.00" departDelay="16.00" arrival="84.00" arrivalLane="E2_1" arrivalPos="83.74" arrivalSpeed="15.26" duration="36.00" routeLength="172.66" waitingTime="13.00" waitingCount="1" stopTime="0.00" timeLoss="24.67" rerouteNo="0" devices="tripinfo_f_1.16" vType="DEFAULT_VEHTYPE" speedFactor="1.17" vaporized=""/>
    <tripinfo id="f_1.18" depart="54.00" departLane="E0_0" departPos="5.10" departSpeed="0.00" departDelay="18.00" arrival="85.00" arrivalLane="E2_1" arrivalPos="83.74" arrivalSpeed="15.79" duration="31.00" routeLength="172.66" waitingTime="9.00" waitingCount="1" stopTime="0.00" timeLoss="20.39" rerouteNo="0" devices="tripinfo_f_1.18" vType="DEFAULT_VEHTYPE" speedFactor="1.18" vaporized=""/>
    <tripinfo id="f_1.17" depart="51.00" departLane="E0_0" departPos="5.10" departSpeed="0.00" departDelay="17.00" arrival="86.00" arrivalLane="E2_0" arrivalPos="83.74" arrivalSpeed="13.65" duration="35.00" routeLength="172.66" waitingTime="13.00" waitingCount="1" stopTime="0.00" timeLoss="22.00" rerouteNo="0" devices="tripinfo_f_1.17" vType="DEFAULT_VEHTYPE" speedFactor="1.02" vaporized=""/>
    <tripinfo id="f_1.19" depart="57.00" departLane="E0_0" departPos="5.10" departSpeed="0.00" departDelay="19.00" arrival="88.00" arrivalLane="E2_0" arrivalPos="83.74" arrivalSpeed="11.91" duration="31.00" routeLength="172.66" waitingTime="8.00" waitingCount="1" stopTime="0.00" timeLoss="16.88" rerouteNo="0" devices="tripinfo_f_1.19" vType="DEFAULT_VEHTYPE" speedFactor="0.90" vaporized=""/>
    <tripinfo id="f_1.20" depart="60.00" departLane="E0_0" departPos="5.10" departSpeed="0.00" departDelay="20.00" arrival="88.00" arrivalLane="E2_1" arrivalPos="83.74" arrivalSpeed="12.91" duration="28.00" routeLength="172.66" waitingTime="4.00" waitingCount="1" stopTime="0.00" timeLoss="14.56" rerouteNo="0" devices="tripinfo_f_1.20" vType="DEFAULT_VEHTYPE" speedFactor="0.96" vaporized=""/>
    <tripinfo id="f_1.21" depart="63.00" departLane="E0_0" departPos="5.10" departSpeed="0.00" departDelay="21.00" arrival="90.00" arrivalLane="E2_0" arrivalPos="83.74" arrivalSpeed="13.24" duration="27.00" routeLength="172.66" waitingTime="3.00" waitingCount="1" stopTime="0.00" timeLoss="14.35" rerouteNo="0" devices="tripinfo_f_1.21" vType="DEFAULT_VEHTYPE" speedFactor="1.04" vaporized=""/>
    <tripinfo id="f_1.22" depart="66.00" departLane="E0_0" departPos="5.10" departSpeed="0.00" departDelay="22.00" arrival="90.00" arrivalLane="E2_1" arrivalPos="83.74" arrivalSpeed="14.03" duration="24.00" routeLength="172.66" waitingTime="0.00" waitingCount="0" stopTime="0.00" timeLoss="11.78" rerouteNo="0" devices="tripinfo_f_1.22" vType="DEFAULT_VEHTYPE" speedFactor="1.09" vaporized=""/>
    <tripinfo id="f_1.23" depart="69.00" departLane="E0_0" departPos="5.10" departSpeed="0.00" departDelay="23.00" arrival="92.00" arrivalLane="E2_0" arrivalPos="83.74" arrivalSpeed="11.27" duration="23.00" routeLength="172.66" waitingTime="0.00" waitingCount="0" stopTime="0.00" timeLoss="8.47" rerouteNo="0" devices="tripinfo_f_1.23" vType="DEFAULT_VEHTYPE" speedFactor="0.90" vaporized=""/>
    <tripinfo id="f_1.24" depart="72.00" departLane="E0_0" departPos="5.10" departSpeed="0.00" departDelay="24.00" arrival="93.00" arrivalLane="E2_1" arrivalPos="83.74" arrivalSpeed="11.71" duration="21.00" routeLength="172.66" waitingTime="0.00" waitingCount="0" stopTime="0.00" timeLoss="5.67" rerouteNo="0" devices="tripinfo_f_1.24" vType="DEFAULT_VEHTYPE" speedFactor="0.85" vaporized=""/>
    <tripinfo id="f_1.25" depart="75.00" departLane="E0_0" departPos="5.10" departSpeed="0.00" departDelay="25.00" arrival="93.00" arrivalLane="E2_0" arrivalPos="83.74" arrivalSpeed="14.72" duration="18.00" routeLength="172.66" waitingTime="0.00" waitingCount="0" stopTime="0.00" timeLoss="7.14" rerouteNo="0" devices="tripinfo_f_1.25" vType="DEFAULT_VEHTYPE" speedFactor="1.17" vaporized=""/>
    <tripinfo id="f_1.26" depart="78.00" departLane="E0_0" departPos="5.10" departSpeed="0.00" departDelay="26.00" arrival="95.00" arrivalLane="E2_0" arrivalPos="83.74" arrivalSpeed="14.02" duration="17.00" routeLength="172.66" waitingTime="0.00" waitingCount="0" stopTime="0.00" timeLoss="5.25" rerouteNo="0" devices="tripinfo_f_1.26" vType="DEFAULT_VEHTYPE" speedFactor="1.10" vaporized=""/>
    <tripinfo id="f_0.21" depart="63.00" departLane="E1_0" departPos="5.10" departSpeed="0.00" departDelay="21.00" arrival="101.00" arrivalLane="E2_1" arrivalPos="83.74" arrivalSpeed="13.97" duration="38.00" routeLength="173.67" waitingTime="15.00" waitingCount="1" stopTime="0.00" timeLoss="25.67" rerouteNo="0" devices="tripinfo_f_0.21" vType="DEFAULT_VEHTYPE" speedFactor="1.09" vaporized=""/>
    <tripinfo id="f_0.20" depart="60.00" departLane="E1_0" departPos="5.10" departSpeed="0.00" departDelay="20.00" arrival="102.00" arrivalLane="E2_0" arrivalPos="83.74" arrivalSpeed="14.08" duration="42.00" routeLength="178.85" waitingTime="20.00" waitingCount="1" stopTime="0.00" timeLoss="28.12" rerouteNo="0" devices="tripinfo_f_0.20" vType="DEFAULT_VEHTYPE" speedFactor="1.03" vaporized=""/>
    <tripinfo id="f_0.22" depart="66.00" departLane="E1_0" departPos="5.10" departSpeed="0.00" departDelay="22.00" arrival="104.00" arrivalLane="E2_0" arrivalPos="83.74" arrivalSpeed="14.27" duration="38.00" routeLength="178.85" waitingTime="15.00" waitingCount="1" stopTime="0.00" timeLoss="24.58" rerouteNo="0" devices="tripinfo_f_0.22" vType="DEFAULT_VEHTYPE" speedFactor="1.04" vaporized=""/>
    <tripinfo id="f_0.23" depart="69.00" departLane="E1_0" departPos="5.10" departSpeed="0.00" departDelay="23.00" arrival="104.00" arrivalLane="E2_1" arrivalPos="83.74" arrivalSpeed="13.41" duration="35.00" routeLength="173.67" waitingTime="12.00" waitingCount="1" stopTime="0.00" timeLoss="21.48" rerouteNo="0" devices="tripinfo_f_0.23" vType="DEFAULT_VEHTYPE" speedFactor="1.00" vaporized=""/>
    <tripinfo id="f_0.24" depart="71.00" departLane="E1_0" departPos="5.10" departSpeed="0.00" departDelay="23.00" arrival="108.00" arrivalLane="E2_0" arrivalPos="83.74" arrivalSpeed="12.00" duration="37.00" routeLength="178.85" waitingTime="11.00" waitingCount="1" stopTime="0.00" timeLoss="20.97" rerouteNo="0" devices="tripinfo_f_0.24" vType="DEFAULT_VEHTYPE" speedFactor="0.88" vaporized=""/>
    <tripinfo id="f_0.25" depart="74.00" departLane="E1_0" departPos="5.10" departSpeed="0.00" departDelay="24.00" arrival="108.00" arrivalLane="E2_1" arrivalPos="83.74" arrivalSpeed="11.50" duration="34.00" routeLength="173.67" waitingTime="7.00" waitingCount="1" stopTime="0.00" timeLoss="18.24" rerouteNo="0" devices="tripinfo_f_0.25" vType="DEFAULT_VEHTYPE" speedFactor="0.85" vaporized=""/>
    <tripinfo id="f_0.26" depart="78.00" departLane="E1_0" departPos="5.10" departSpeed="0.00" departDelay="26.00" arrival="110.00" arrivalLane="E2_0" arrivalPos="83.74" arrivalSpeed="13.86" duration="32.00" routeLength="178.85" waitingTime="6.00" waitingCount="1" stopTime="0.00" timeLoss="17.49" rerouteNo="0" devices="tripinfo_f_0.26" vType="DEFAULT_VEHTYPE" speedFactor="1.02" vaporized=""/>
    <tripinfo id="f_0.27" depart="81.00" departLane="E1_0" departPos="5.10" departSpeed="0.00" departDelay="27.00" arrival="110.00" arrivalLane="E2_1" arrivalPos="83.74" arrivalSpeed="13.29" duration="29.00" routeLength="173.67" waitingTime="2.00" waitingCount="1" stopTime="0.00" timeLoss="15.38" rerouteNo="0" devices="tripinfo_f_0.27" vType="DEFAULT_VEHTYPE" speedFactor="1.00" vaporized=""/>
    <tripinfo id="f_0.29" depart="87.00" departLane="E1_0" departPos="5.10" departSpeed="0.00" departDelay="29.00" arrival="112.00" arrivalLane="E2_1" arrivalPos="83.74" arrivalSpeed="13.36" duration="25.00" routeLength="173.67" waitingTime="0.00" waitingCount="0" stopTime="0.00" timeLoss="12.23" rerouteNo="0" devices="tripinfo_f_0.29" vType="DEFAULT_VEHTYPE" speedFactor="1.02" vaporized=""/>
    <tripinfo id="f_0.28" depart="84.00" departLane="E1_0" departPos="5.10" departSpeed="0.00" departDelay="28.00" arrival="113.00" arrivalLane="E2_0" arrivalPos="83.74" arrivalSpeed="11.21" duration="29.00" routeLength="178.85" waitingTime="1.00" waitingCount="1" stopTime="0.00" timeLoss="13.09" rerouteNo="0" devices="tripinfo_f_0.28" vType="DEFAULT_VEHTYPE" speedFactor="0.90" vaporized=""/>
    <tripinfo id="f_0.30" depart="90.00" departLane="E1_0" departPos="5.10" departSpeed="0.00" departDelay="30.00" arrival="114.00" arrivalLane="E2_0" arrivalPos="83.74" arrivalSpeed="13.58" duration="24.00" routeLength="178.85" waitingTime="0.00" waitingCount="0" stopTime="0.00" timeLoss="11.24" rerouteNo="0" devices="tripinfo_f_0.30" vType="DEFAULT_VEHTYPE" speedFactor="1.08" vaporized=""/>
    <tripinfo id="f_0.31" depart="93.00" departLane="E1_0" departPos="5.10" departSpeed="0.00" departDelay="31.00" arrival="115.00" arrivalLane="E2_1" arrivalPos="83.74" arrivalSpeed="13.09" duration="22.00" routeLength="173.67" waitingTime="0.00" waitingCount="0" stopTime="0.00" timeLoss="8.69" rerouteNo="0" devices="tripinfo_f_0.31" vType="DEFAULT_VEHTYPE" speedFactor="1.02" vaporized=""/>
    <tripinfo id="f_1.27" depart="81.00" departLane="E0_0" departPos="5.10" departSpeed="0.00" departDelay="27.00" arrival="121.00" arrivalLane="E2_0" arrivalPos="83.74" arrivalSpeed="12.92" duration="40.00" routeLength="172.66" waitingTime="18.00" waitingCount="1" stopTime="0.00" timeLoss="26.72" rerouteNo="0" devices="tripinfo_f_1.27" vType="DEFAULT_VEHTYPE" speedFactor="1.00" vaporized=""/>
    <tripinfo id="f_1.28" depart="84.00" departLane="E0_0" departPos="5.10" departSpeed="0.00" departDelay="28.00" arrival="121.00" arrivalLane="E2_1" arrivalPos="83.74" arrivalSpeed="15.49" duration="37.00" routeLength="172.66" waitingTime="15.00" waitingCount="1" stopTime="0.00" timeLoss="25.36" rerouteNo="0" devices="tripinfo_f_1.28" vType="DEFAULT_VEHTYPE" speedFactor="1.14" vaporized=""/>
    <tripinfo id="f_1.29" depart="87.00" departLane="E0_0" departPos="5.10" departSpeed="0.00" departDelay="29.00" arrival="123.00" arrivalLane="E2_0" arrivalPos="83.74" arrivalSpeed="12.25" duration="36.00" routeLength="172.66" waitingTime="13.00" waitingCount="1" stopTime="0.00" timeLoss="22.87" rerouteNo="0" devices="tripinfo_f_1.29" vType="DEFAULT_VEHTYPE" speedFactor="0.97" vaporized=""/>
    <tripinfo id="f_1.30" depart="90.00" departLane="E0_0" departPos="5.10" departSpeed="0.00" departDelay="30.00" arrival="123.00" arrivalLane="E2_1" arrivalPos="83.74" arrivalSpeed="15.35" duration="33.00" routeLength="172.66" waitingTime="11.00" waitingCount="1" stopTime="0.00" timeLoss="21.11" rerouteNo="0" devices="tripinfo_f_1.30" vType="DEFAULT_VEHTYPE" speedFactor="1.12" vaporized=""/>
    <tripinfo id="f_1.31" depart="93.00" departLane="E0_0" departPos="5.10" departSpeed="0.00" departDelay="31.00" arrival="126.00" arrivalLane="E2_0" arrivalPos="83.74" arrivalSpeed="13.27" duration="33.00" routeLength="172.66" waitingTime="9.00" waitingCount="1" stopTime="0.00" timeLoss="19.45" rerouteNo="0" devices="tripinfo_f_1.31" vType="DEFAULT_VEHTYPE" speedFactor="0.99" vaporized=""/>
    <tripinfo id="f_1.32" depart="96.00" departLane="E0_0" departPos="5.10" departSpeed="0.00" departDelay="32.00" arrival="126.00" arrivalLane="E2_1" arrivalPos="83.74" arrivalSpeed="11.00" duration="30.00" routeLength="172.66" waitingTime="4.00" waitingCount="1" stopTime="0.00" timeLoss="15.17" rerouteNo="0" devices="tripinfo_f_1.32" vType="DEFAULT_VEHTYPE" speedFactor="0.88" vaporized=""/>
    <tripinfo id="f_1.34" depart="102.00" departLane="E0_0" departPos="5.10" departSpeed="0.00" departDelay="34.00" arrival="127.00" arrivalLane="E2_1" arrivalPos="83.74" arrivalSpeed="13.43" duration="25.00" routeLength="172.66" waitingTime="1.00" waitingCount="1" stopTime="0.00" timeLoss="12.66" rerouteNo="0" devices="tripinfo_f_1.34" vType="DEFAULT_VEHTYPE" speedFactor="1.02" vaporized=""/>
    <tripinfo id="f_1.33" depart="99.00" departLane="E0_0" departPos="5.10" departSpeed="0.00" departDelay="33.00" arrival="128.00" arrivalLane="E2_0" arrivalPos="83.74" arrivalSpeed="11.98" duration="29.00" routeLength="172.66" waitingTime="4.00" waitingCount="1" stopTime="0.00" timeLoss="14.79" rerouteNo="0" devices="tripinfo_f_1.33" vType="DEFAULT_VEHTYPE" speedFactor="0.91" vaporized=""/>
    <tripinfo id="f_1.35" depart="105.00" departLane="E0_0" departPos="5.10" departSpeed="0.00" departDelay="35.00" arrival="129.00" arrivalLane="E2_0" arrivalPos="83.74" arrivalSpeed="13.30" duration="24.00" routeLength="172.66" waitingTime="0.00" waitingCount="0" stopTime="0.00" timeLoss="11.20" rerouteNo="0" devices="tripinfo_f_1.35" vType="DEFAULT_VEHTYPE" speedFactor="0.97" vaporized=""/>
    <tripinfo id="f_1.36" depart="108.00" departLane="E0_0" departPos="5.10" departSpeed="0.00" departDelay="36.00" arrival="129.00" arrivalLane="E2_1" arrivalPos="83.74" arrivalSpeed="13.73" duration="21.00" routeLength="172.66" waitingTime="0.00" waitingCount="0" stopTime="0.00" timeLoss="8.73" rerouteNo="0" devices="tripinfo_f_1.36" vType="DEFAULT_VEHTYPE" speedFactor="1.06" vaporized=""/>
    <tripinfo id="f_1.37" depart="111.00" departLane="E0_0" departPos="5.10" departSpeed="0.00" departDelay="37.00" arrival="131.00" arrivalLane="E2_0" arrivalPos="83.74" arrivalSpeed="13.24" duration="20.00" routeLength="172.66" waitingTime="0.00" waitingCount="0" stopTime="0.00" timeLoss="7.08" rerouteNo="0" devices="tripinfo_f_1.37" vType="DEFAULT_VEHTYPE" speedFactor="0.98" vaporized=""/>
    <tripinfo id="f_1.38" depart="114.00" departLane="E0_0" departPos="5.10" departSpeed="0.00" departDelay="38.00" arrival="132.00" arrivalLane="E2_1" arrivalPos="83.74" arrivalSpeed="12.85" duration="18.00" routeLength="172.66" waitingTime="0.00" waitingCount="0" stopTime="0.00" timeLoss="4.68" rerouteNo="0" devices="tripinfo_f_1.38" vType="DEFAULT_VEHTYPE" speedFactor="0.98" vaporized=""/>
    <tripinfo id="f_1.39" depart="117.00" departLane="E0_0" departPos="5.10" departSpeed="0.00" departDelay="39.00" arrival="133.00" arrivalLane="E2_0" arrivalPos="83.74" arrivalSpeed="14.57" duration="16.00" routeLength="172.66" waitingTime="0.00" waitingCount="0" stopTime="0.00" timeLoss="3.95" rerouteNo="0" devices="tripinfo_f_1.39" vType="DEFAULT_VEHTYPE" speedFactor="1.09" vaporized=""/>
    <tripinfo id="f_0.33" depart="99.00" departLane="E1_0" departPos="5.10" departSpeed="0.00" departDelay="33.00" arrival="139.00" arrivalLane="E2_1" arrivalPos="83.74" arrivalSpeed="12.06" duration="40.00" routeLength="173.67" waitingTime="16.00" waitingCount="1" stopTime="0.00" timeLoss="25.30" rerouteNo="0" devices="tripinfo_f_0.33" vType="DEFAULT_VEHTYPE" speedFactor="0.91" vaporized=""/>
    <tripinfo id="f_0.32" depart="96.00" departLane="E1_0" departPos="5.10" departSpeed="0.00" departDelay="32.00" arrival="140.00" arrivalLane="E2_0" arrivalPos="83.74" arrivalSpeed="12.88" duration="44.00" routeLength="178.85" waitingTime="17.00" waitingCount="1" stopTime="0.00" timeLoss="28.66" rerouteNo="0" devices="tripinfo_f_0.32" vType="DEFAULT_VEHTYPE" speedFactor="0.94" vaporized=""/>