<?xml version="1.0" encoding="UTF-8"?>

<!-- generated on 2025-04-06 23:33:25 by Eclipse SUMO sumo Version v1_21_0+0707-ca487ebdee8
<sumoConfiguration xmlns:xsi="http://www.w3.org/2001/XMLSchema-instance" xsi:noNamespaceSchemaLocation="http://sumo.dlr.de/xsd/sumoConfiguration.xsd">

    <input>
        <net-file value="nt1.net.xml"/>
        <route-files value="nt1.rou.xml"/>
        <additional-files value="nt1.add.xml"/>
    </input>

    <output>
        <tripinfo-output value="tripinfo2.xml"/>
    </output>

    <time>
        <begin value="0"/>
        <end value="3600"/>
    </time>

</sumoConfiguration>
-->

<tripinfos xmlns:xsi="http://www.w3.org/2001/XMLSchema-instance" xsi:noNamespaceSchemaLocation="http://sumo.dlr.de/xsd/tripinfo_file.xsd">
    <tripinfo id="f_1.0" depart="0.00" departLane="E0_0" departPos="5.10" departSpeed="0.00" departDelay="0.00" arrival="17.00" arrivalLane="E2_0" arrivalPos="83.74" arrivalSpeed="12.29" duration="17.00" routeLength="172.66" waitingTime="0.00" waitingCount="0" stopTime="0.00" timeLoss="3.32" rerouteNo="0" devices="tripinfo_f_1.0" vType="DEFAULT_VEHTYPE" speedFactor="0.94" vaporized=""/>
    <tripinfo id="f_1.1" depart="3.00" departLane="E0_0" departPos="5.10" departSpeed="0.00" departDelay="1.00" arrival="20.00" arrivalLane="E2_0" arrivalPos="83.74" arrivalSpeed="14.51" duration="17.00" routeLength="172.66" waitingTime="0.00" waitingCount="0" stopTime="0.00" timeLoss="4.58" rerouteNo="0" devices="tripinfo_f_1.1" vType="DEFAULT_VEHTYPE" speedFactor="1.08" vaporized=""/>
    <tripinfo id="f_1.2" depart="6.00" departLane="E0_0" departPos="5.10" departSpeed="0.00" departDelay="2.00" arrival="25.00" arrivalLane="E2_0" arrivalPos="83.74" arrivalSpeed="10.86" duration="19.00" routeLength="172.66" waitingTime="0.00" waitingCount="0" stopTime="0.00" timeLoss="3.17" rerouteNo="0" devices="tripinfo_f_1.2" vType="DEFAULT_VEHTYPE" speedFactor="0.83" vaporized=""/>
    <tripinfo id="f_1.3" depart="9.00" departLane="E0_0" departPos="5.10" departSpeed="0.00" departDelay="3.00" arrival="27.00" arrivalLane="E2_0" arrivalPos="83.74" arrivalSpeed="11.56" duration="18.00" routeLength="172.66" waitingTime="0.00" waitingCount="0" stopTime="0.00" timeLoss="3.31" rerouteNo="0" devices="tripinfo_f_1.3" vType="DEFAULT_VEHTYPE" speedFactor="0.89" vaporized=""/>
    <tripinfo id="f_1.4" depart="12.00" departLane="E0_0" departPos="5.10" departSpeed="0.00" departDelay="4.00" arrival="30.00" arrivalLane="E2_0" arrivalPos="83.74" arrivalSpeed="10.71" duration="18.00" routeLength="172.66" waitingTime="0.00" waitingCount="0" stopTime="0.00" timeLoss="3.16" rerouteNo="0" devices="tripinfo_f_1.4" vType="DEFAULT_VEHTYPE" speedFactor="0.86" vaporized=""/>
    <tripinfo id="f_1.5" depart="15.00" departLane="E0_0" departPos="5.10" departSpeed="0.00" departDelay="5.00" arrival="32.00" arrivalLane="E2_0" arrivalPos="83.74" arrivalSpeed="13.41" duration="17.00" routeLength="172.66" waitingTime="0.00" waitingCount="0" stopTime="0.00" timeLoss="4.13" rerouteNo="0" devices="tripinfo_f_1.5" vType="DEFAULT_VEHTYPE" speedFactor="1.03" vaporized=""/>
    <tripinfo id="f_1.6" depart="18.00" departLane="E0_0" departPos="5.10" departSpeed="0.00" departDelay="6.00" arrival="34.00" arrivalLane="E2_0" arrivalPos="83.74" arrivalSpeed="14.50" duration="16.00" routeLength="172.66" waitingTime="0.00" waitingCount="0" stopTime="0.00" timeLoss="4.24" rerouteNo="0" devices="tripinfo_f_1.6" vType="DEFAULT_VEHTYPE" speedFactor="1.12" vaporized=""/>
    <tripinfo id="f_1.7" depart="21.00" departLane="E0_0" departPos="5.10" departSpeed="0.00" departDelay="7.00" arrival="38.00" arrivalLane="E2_0" arrivalPos="83.74" arrivalSpeed="12.23" duration="17.00" routeLength="172.66" waitingTime="0.00" waitingCount="0" stopTime="0.00" timeLoss="3.22" rerouteNo="0" devices="tripinfo_f_1.7" vType="DEFAULT_VEHTYPE" speedFactor="0.93" vaporized=""/>
    <tripinfo id="f_1.8" depart="24.00" departLane="E0_0" departPos="5.10" departSpeed="0.00" departDelay="8.00" arrival="41.00" arrivalLane="E2_0" arrivalPos="83.74" arrivalSpeed="12.75" duration="17.00" routeLength="172.66" waitingTime="0.00" waitingCount="0" stopTime="0.00" timeLoss="3.51" rerouteNo="0" devices="tripinfo_f_1.8" vType="DEFAULT_VEHTYPE" speedFactor="0.94" vaporized=""/>
    <tripinfo id="f_1.9" depart="27.00" departLane="E0_0" departPos="5.10" departSpeed="0.00" departDelay="9.00" arrival="43.00" arrivalLane="E2_0" arrivalPos="83.74" arrivalSpeed="15.22" duration="16.00" routeLength="172.66" waitingTime="0.00" waitingCount="0" stopTime="0.00" timeLoss="4.66" rerouteNo="0" devices="tripinfo_f_1.9" vType="DEFAULT_VEHTYPE" speedFactor="1.16" vaporized=""/>
    <tripinfo id="f_1.10" depart="30.00" departLane="E0_0" departPos="5.10" departSpeed="0.00" departDelay="10.00" arrival="47.00" arrivalLane="E2_0" arrivalPos="83.74" arrivalSpeed="13.39" duration="17.00" routeLength="172.66" waitingTime="0.00" waitingCount="0" stopTime="0.00" timeLoss="4.24" rerouteNo="0" devices="tripinfo_f_1.10" vType="DEFAULT_VEHTYPE" speedFactor="1.01" vaporized=""/>
    <tripinfo id="f_1.11" depart="33.00" departLane="E0_0" departPos="5.10" departSpeed="0.00" departDelay="11.00" arrival="51.00" arrivalLane="E2_0" arrivalPos="83.74" arrivalSpeed="11.59" duration="18.00" routeLength="172.66" waitingTime="0.00" waitingCount="0" stopTime="0.00" timeLoss="3.80" rerouteNo="0" devices="tripinfo_f_1.11" vType="DEFAULT_VEHTYPE" speedFactor="0.89" vaporized=""/>
    <tripinfo id="f_1.12" depart="36.00" departLane="E0_0" departPos="5.10" departSpeed="0.00" departDelay="12.00" arrival="54.00" arrivalLane="E2_0" arrivalPos="83.74" arrivalSpeed="12.05" duration="18.00" routeLength="172.66" waitingTime="0.00" waitingCount="0" stopTime="0.00" timeLoss="3.46" rerouteNo="0" devices="tripinfo_f_1.12" vType="DEFAULT_VEHTYPE" speedFactor="0.87" vaporized=""/>
    <tripinfo id="f_1.13" depart="39.00" departLane="E0_0" departPos="5.10" departSpeed="0.00" departDelay="13.00" arrival="56.00" arrivalLane="E2_0" arrivalPos="83.74" arrivalSpeed="12.05" duration="17.00" routeLength="172.66" waitingTime="0.00" waitingCount="0" stopTime="0.00" timeLoss="3.39" rerouteNo="0" devices="tripinfo_f_1.13" vType="DEFAULT_VEHTYPE" speedFactor="0.95" vaporized=""/>
    <tripinfo id="f_1.14" depart="42.00" departLane="E0_0" departPos="5.10" departSpeed="0.00" departDelay="14.00" arrival="59.00" arrivalLane="E2_0" arrivalPos="83.74" arrivalSpeed="11.69" duration="17.00" routeLength="172.66" waitingTime="0.00" waitingCount="0" stopTime="0.00" timeLoss="3.63" rerouteNo="0" devices="tripinfo_f_1.14" vType="DEFAULT_VEHTYPE" speedFactor="0.93" vaporized=""/>
    <tripinfo id="f_1.15" depart="45.00" departLane="E0_0" departPos="5.10" departSpeed="0.00" departDelay="15.00" arrival="61.00" arrivalLane="E2_0" arrivalPos="83.74" arrivalSpeed="15.44" duration="16.00" routeLength="172.66" waitingTime="0.00" waitingCount="0" stopTime="0.00" timeLoss="4.64" rerouteNo="0" devices="tripinfo_f_1.15" vType="DEFAULT_VEHTYPE" speedFactor="1.15" vaporized=""/>
    <tripinfo id="f_0.0" depart="0.00" departLane="E1_0" departPos="5.10" departSpeed="0.00" departDelay="0.00" arrival="67.00" arrivalLane="E2_1" arrivalPos="83.74" arrivalSpeed="13.80" duration="67.00" routeLength="173.67" waitingTime="46.00" waitingCount="1" stopTime="0.00" timeLoss="54.47" rerouteNo="0" devices="tripinfo_f_0.0" vType="DEFAULT_VEHTYPE" speedFactor="1.06" vaporized=""/>
    <tripinfo id="f_0.1" depart="3.00" departLane="E1_0" departPos="5.10" departSpeed="0.00" departDelay="1.00" arrival="68.00" arrivalLane="E2_0" arrivalPos="83.74" arrivalSpeed="13.92" duration="65.00" routeLength="178.85" waitingTime="42.00" waitingCount="1" stopTime="0.00" timeLoss="51.29" rerouteNo="0" devices="tripinfo_f_0.1" vType="DEFAULT_VEHTYPE" speedFactor="1.01" vaporized=""/>
    <tripinfo id="f_0.3" depart="9.00" departLane="E1_0" departPos="5.10" departSpeed="0.00" departDelay="3.00" arrival="69.00" arrivalLane="E2_1" arrivalPos="83.74" arrivalSpeed="13.55" duration="60.00" routeLength="173.67" waitingTime="37.00" waitingCount="1" stopTime="0.00" timeLoss="47.27" rerouteNo="0" devices="tripinfo_f_0.3" vType="DEFAULT_VEHTYPE" speedFactor="1.05" vaporized=""/>
    <tripinfo id="f_0.2" depart="6.00" departLane="E1_0" departPos="5.10" departSpeed="0.00" departDelay="2.00" arrival="70.00" arrivalLane="E2_0" arrivalPos="83.74" arrivalSpeed="13.08" duration="64.00" routeLength="178.85" waitingTime="40.00" waitingCount="1" stopTime="0.00" timeLoss="50.62" rerouteNo="0" devices="tripinfo_f_0.2" vType="DEFAULT_VEHTYPE" speedFactor="1.03" vaporized=""/>
    <tripinfo id="f_0.5" depart="15.00" departLane="E1_0" departPos="5.10" departSpeed="0.00" departDelay="5.00" arrival="72.00" arrivalLane="E2_1" arrivalPos="83.74" arrivalSpeed="13.90" duration="57.00" routeLength="173.67" waitingTime="32.00" waitingCount="1" stopTime="0.00" timeLoss="44.74" rerouteNo="0" devices="tripinfo_f_0.5" vType="DEFAULT_VEHTYPE" speedFactor="1.09" vaporized=""/>
    <tripinfo id="f_0.4" depart="12.00" departLane="E1_0" departPos="5.10" departSpeed="0.00" departDelay="4.00" arrival="73.00" arrivalLane="E2_0" arrivalPos="83.74" arrivalSpeed="12.39" duration="61.00" routeLength="178.85" waitingTime="36.00" waitingCount="1" stopTime="0.00" timeLoss="46.50" rerouteNo="0" devices="tripinfo_f_0.4" vType="DEFAULT_VEHTYPE" speedFactor="0.94" vaporized=""/>
    <tripinfo id="f_0.6" depart="18.00" departLane="E1_0" departPos="5.10" departSpeed="0.00" departDelay="6.00" arrival="75.00" arrivalLane="E2_0" arrivalPos="83.74" arrivalSpeed="14.09" duration="57.00" routeLength="178.85" waitingTime="32.00" waitingCount="1" stopTime="0.00" timeLoss="43.98" rerouteNo="0" devices="tripinfo_f_0.6" vType="DEFAULT_VEHTYPE" speedFactor="1.05" vaporized=""/>
    <tripinfo id="f_0.7" depart="21.00" departLane="E1_0" departPos="5.10" departSpeed="0.00" departDelay="7.00" arrival="75.00" arrivalLane="E2_1" arrivalPos="83.74" arrivalSpeed="13.60" duration="54.00" routeLength="173.67" waitingTime="29.00" waitingCount="1" stopTime="0.00" timeLoss="40.30" rerouteNo="0" devices="tripinfo_f_0.7" vType="DEFAULT_VEHTYPE" speedFactor="0.99" vaporized=""/>
    <tripinfo id="f_0.8" depart="24.00" departLane="E1_0" departPos="5.10" departSpeed="0.00" departDelay="8.00" arrival="79.00" arrivalLane="E2_0" arrivalPos="83.74" arrivalSpeed="11.65" duration="55.00" routeLength="178.85" waitingTime="27.00" waitingCount="1" stopTime="0.00" timeLoss="39.20" rerouteNo="0" devices="tripinfo_f_0.8" vType="DEFAULT_VEHTYPE" speedFactor="0.88" vaporized=""/>
    <tripinfo id="f_0.9" depart="27.00" departLane="E1_0" departPos="5.10" departSpeed="0.00" departDelay="9.00" arrival="79.00" arrivalLane="E2_1" arrivalPos="83.74" arrivalSpeed="12.96" duration="52.00" routeLength="173.67" waitingTime="25.00" waitingCount="1" stopTime="0.00" timeLoss="37.01" rerouteNo="0" devices="tripinfo_f_0.9" vType="DEFAULT_VEHTYPE" speedFactor="0.94" vaporized=""/>
    <tripinfo id="f_0.10" depart="30.00" departLane="E1_0" departPos="5.10" departSpeed="0.00" departDelay="10.00" arrival="81.00" arrivalLane="E2_0" arrivalPos="83.74" arrivalSpeed="14.05" duration="51.00" routeLength="178.85" waitingTime="22.00" waitingCount="1" stopTime="0.00" timeLoss="36.76" rerouteNo="0" devices="tripinfo_f_0.10" vType="DEFAULT_VEHTYPE" speedFactor="1.02" vaporized=""/>
    <tripinfo id="f_0.11" depart="33.00" departLane="E1_0" departPos="5.10" departSpeed="0.00" departDelay="11.00" arrival="81.00" arrivalLane="E2_1" arrivalPos="83.74" arrivalSpeed="13.42" duration="48.00" routeLength="173.67" waitingTime="19.00" waitingCount="1" stopTime="0.00" timeLoss="34.32" rerouteNo="0" devices="tripinfo_f_0.11" vType="DEFAULT_VEHTYPE" speedFactor="0.97" vaporized=""/>
    <tripinfo id="f_0.13" depart="39.00" departLane="E1_0" departPos="5.10" departSpeed="0.00" departDelay="13.00" arrival="84.00" arrivalLane="E2_1" arrivalPos="83.74" arrivalSpeed="11.58" duration="45.00" routeLength="173.67" waitingTime="15.00" waitingCount="1" stopTime="0.00" timeLoss="30.20" rerouteNo="0" devices="tripinfo_f_0.13" vType="DEFAULT_VEHTYPE" speedFactor="0.92" vaporized=""/>
    <tripinfo id="f_0.12" depart="36.00" departLane="E1_0" departPos="5.10" departSpeed="0.00" departDelay="12.00" arrival="85.00" arrivalLane="E2_0" arrivalPos="83.74" arrivalSpeed="10.69" duration="49.00" routeLength="178.85" waitingTime="20.00" waitingCount="1" stopTime="0.00" timeLoss="31.84" rerouteNo="0" devices="tripinfo_f_0.12" vType="DEFAULT_VEHTYPE" speedFactor="0.83" vaporized=""/>
    <tripinfo id="f_0.14" depart="42.00" departLane="E1_0" departPos="5.10" departSpeed="0.00" departDelay="14.00" arrival="86.00" arrivalLane="E2_0" arrivalPos="83.74" arrivalSpeed="12.78" duration="44.00" routeLength="178.85" waitingTime="15.00" waitingCount="1" stopTime="0.00" timeLoss="31.65" rerouteNo="0" devices="tripinfo_f_0.14" vType="DEFAULT_VEHTYPE" speedFactor="1.13" vaporized=""/>
    <tripinfo id="f_0.15" depart="45.00" departLane="E1_0" departPos="5.10" departSpeed="0.00" departDelay="15.00" arrival="86.00" arrivalLane="E2_1" arrivalPos="83.74" arrivalSpeed="15.50" duration="41.00" routeLength="173.67" waitingTime="11.00" waitingCount="1" stopTime="0.00" timeLoss="29.37" rerouteNo="0" devices="tripinfo_f_0.15" vType="DEFAULT_VEHTYPE" speedFactor="1.18" vaporized=""/>
    <tripinfo id="f_0.16" depart="47.00" departLane="E1_0" departPos="5.10" departSpeed="0.00" departDelay="15.00" arrival="88.00" arrivalLane="E2_0" arrivalPos="83.74" arrivalSpeed="12.98" duration="41.00" routeLength="178.85" waitingTime="13.00" waitingCount="1" stopTime="0.00" timeLoss="27.07" rerouteNo="0" devices="tripinfo_f_0.16" vType="DEFAULT_VEHTYPE" speedFactor="1.01" vaporized=""/>
    <tripinfo id="f_0.17" depart="50.00" departLane="E1_0" departPos="5.10" departSpeed="0.00" departDelay="16.00" arrival="89.00" arrivalLane="E2_1" arrivalPos="83.74" arrivalSpeed="13.33" duration="39.00" routeLength="173.67" waitingTime="9.00" waitingCount="1" stopTime="0.00" timeLoss="25.04" rerouteNo="0" devices="tripinfo_f_0.17" vType="DEFAULT_VEHTYPE" speedFactor="0.99" vaporized=""/>
    <tripinfo id="f_0.18" depart="52.00" departLane="E1_0" departPos="5.10" departSpeed="0.00" departDelay="16.00" arrival="90.00" arrivalLane="E2_0" arrivalPos="83.74" arrivalSpeed="12.28" duration="38.00" routeLength="178.85" waitingTime="11.00" waitingCount="1" stopTime="0.00" timeLoss="23.86" rerouteNo="0" devices="tripinfo_f_0.18" vType="DEFAULT_VEHTYPE" speedFactor="0.97" vaporized=""/>
    <tripinfo id="f_0.19" depart="55.00" departLane="E1_0" departPos="5.10" departSpeed="0.00" departDelay="17.00" arrival="90.00" arrivalLane="E2_1" arrivalPos="83.74" arrivalSpeed="14.41" duration="35.00" routeLength="173.67" waitingTime="5.00" waitingCount="1" stopTime="0.00" timeLoss="22.96" rerouteNo="0" devices="tripinfo_f_0.19" vType="DEFAULT_VEHTYPE" speedFactor="1.10" vaporized=""/>
    <tripinfo id="f_0.21" depart="70.00" departLane="E1_0" departPos="5.10" departSpeed="0.00" departDelay="28.00" arrival="92.00" arrivalLane="E2_0" arrivalPos="83.74" arrivalSpeed="14.02" duration="22.00" routeLength="178.85" waitingTime="0.00" waitingCount="0" stopTime="0.00" timeLoss="8.97" rerouteNo="0" devices="tripinfo_f_0.21" vType="DEFAULT_VEHTYPE" speedFactor="1.09" vaporized=""/>
    <tripinfo id="f_0.20" depart="56.00" departLane="E1_0" departPos="5.10" departSpeed="0.00" departDelay="16.00" arrival="93.00" arrivalLane="E2_1" arrivalPos="83.74" arrivalSpeed="13.76" duration="37.00" routeLength="173.67" waitingTime="8.00" waitingCount="1" stopTime="0.00" timeLoss="23.32" rerouteNo="0" devices="tripinfo_f_0.20" vType="DEFAULT_VEHTYPE" speedFactor="1.03" vaporized=""/>
    <tripinfo id="f_0.22" depart="73.00" departLane="E1_0" departPos="5.10" departSpeed="0.00" departDelay="29.00" arrival="95.00" arrivalLane="E2_0" arrivalPos="83.74" arrivalSpeed="13.63" duration="22.00" routeLength="178.85" waitingTime="0.00" waitingCount="0" stopTime="0.00" timeLoss="7.96" rerouteNo="0" devices="tripinfo_f_0.22" vType="DEFAULT_VEHTYPE" speedFactor="1.04" vaporized=""/>
    <tripinfo id="f_1.16" depart="48.00" departLane="E0_0" departPos="5.10" departSpeed="0.00" departDelay="16.00" arrival="99.00" arrivalLane="E2_0" arrivalPos="83.74" arrivalSpeed="15.99" duration="51.00" routeLength="172.66" waitingTime="30.00" waitingCount="1" stopTime="0.00" timeLoss="39.98" rerouteNo="0" devices="tripinfo_f_1.16" vType="DEFAULT_VEHTYPE" speedFactor="1.17" vaporized=""/>
    <tripinfo id="f_1.17" depart="51.00" departLane="E0_0" departPos="5.10" departSpeed="0.00" departDelay="17.00" arrival="100.00" arrivalLane="E2_1" arrivalPos="83.74" arrivalSpeed="13.56" duration="49.00" routeLength="172.66" waitingTime="27.00" waitingCount="1" stopTime="0.00" timeLoss="36.09" rerouteNo="0" devices="tripinfo_f_1.17" vType="DEFAULT_VEHTYPE" speedFactor="1.02" vaporized=""/>
    <tripinfo id="f_1.18" depart="54.00" departLane="E0_0" departPos="5.10" departSpeed="0.00" departDelay="18.00" arrival="101.00" arrivalLane="E2_0" arrivalPos="83.74" arrivalSpeed="15.94" duration="47.00" routeLength="172.66" waitingTime="25.00" waitingCount="1" stopTime="0.00" timeLoss="36.03" rerouteNo="0" devices="tripinfo_f_1.18" vType="DEFAULT_VEHTYPE" speedFactor="1.18" vaporized=""/>
    <tripinfo id="f_1.19" depart="57.00" departLane="E0_0" departPos="5.10" departSpeed="0.00" departDelay="19.00" arrival="103.00" arrivalLane="E2_1" arrivalPos="83.74" arrivalSpeed="11.93" duration="46.00" routeLength="172.66" waitingTime="22.00" waitingCount="1" stopTime="0.00" timeLoss="31.78" rerouteNo="0" devices="tripinfo_f_1.19" vType="DEFAULT_VEHTYPE" speedFactor="0.90" vaporized=""/>
    <tripinfo id="f_1.20" depart="60.00" departLane="E0_0" departPos="5.10" departSpeed="0.00" departDelay="20.00" arrival="104.00" arrivalLane="E2_0" arrivalPos="83.74" arrivalSpeed="12.31" duration="44.00" routeLength="172.66" waitingTime="22.00" waitingCount="1" stopTime="0.00" timeLoss="30.35" rerouteNo="0" devices="tripinfo_f_1.20" vType="DEFAULT_VEHTYPE" speedFactor="0.96" vaporized=""/>
    <tripinfo id="f_1.21" depart="63.00" departLane="E0_0" departPos="5.10" departSpeed="0.00" departDelay="21.00" arrival="105.00" arrivalLane="E2_1" arrivalPos="83.74" arrivalSpeed="13.32" duration="42.00" routeLength="172.66" waitingTime="18.00" waitingCount="1" stopTime="0.00" timeLoss="29.26" rerouteNo="0" devices="tripinfo_f_1.21" vType="DEFAULT_VEHTYPE" speedFactor="1.04" vaporized=""/>
    <tripinfo id="f_1.22" depart="66.00" departLane="E0_0" departPos="5.10" departSpeed="0.00" departDelay="22.00" arrival="105.00" arrivalLane="E2_0" arrivalPos="83.74" arrivalSpeed="14.61" duration="39.00" routeLength="172.66" waitingTime="17.00" waitingCount="1" stopTime="0.00" timeLoss="27.51" rerouteNo="0" devices="tripinfo_f_1.22" vType="DEFAULT_VEHTYPE" speedFactor="1.09" vaporized=""/>
    <tripinfo id="f_1.23" depart="69.00" departLane="E0_0" departPos="5.10" departSpeed="0.00" departDelay="23.00" arrival="107.00" arrivalLane="E2_1" arrivalPos="83.74" arrivalSpeed="12.28" duration="38.00" routeLength="172.66" waitingTime="14.00" waitingCount="1" stopTime="0.00" timeLoss="23.49" rerouteNo="0" devices="tripinfo_f_1.23" vType="DEFAULT_VEHTYPE" speedFactor="0.90" vaporized=""/>
    <tripinfo id="f_1.24" depart="72.00" departLane="E0_0" departPos="5.10" departSpeed="0.00" departDelay="24.00" arrival="108.00" arrivalLane="E2_0" arrivalPos="83.74" arrivalSpeed="10.71" duration="36.00" routeLength="172.66" waitingTime="13.00" waitingCount="1" stopTime="0.00" timeLoss="21.32" rerouteNo="0" devices="tripinfo_f_1.24" vType="DEFAULT_VEHTYPE" speedFactor="0.85" vaporized=""/>
    <tripinfo id="f_1.25" depart="75.00" departLane="E0_0" departPos="5.10" departSpeed="0.00" departDelay="25.00" arrival="108.00" arrivalLane="E2_1" arrivalPos="83.74" arrivalSpeed="13.53" duration="33.00" routeLength="172.66" waitingTime="10.00" waitingCount="1" stopTime="0.00" timeLoss="22.31" rerouteNo="0" devices="tripinfo_f_1.25" vType="DEFAULT_VEHTYPE" speedFactor="1.17" vaporized=""/>
    <tripinfo id="f_1.26" depart="78.00" departLane="E0_0" departPos="5.10" departSpeed="0.00" departDelay="26.00" arrival="110.00" arrivalLane="E2_0" arrivalPos="83.74" arrivalSpeed="14.37" duration="32.00" routeLength="172.66" waitingTime="8.00" waitingCount="1" stopTime="0.00" timeLoss="20.21" rerouteNo="0" devices="tripinfo_f_1.26" vType="DEFAULT_VEHTYPE" speedFactor="1.10" vaporized=""/>
    <tripinfo id="f_1.27" depart="81.00" departLane="E0_0" departPos="5.10" departSpeed="0.00" departDelay="27.00" arrival="110.00" arrivalLane="E2_1" arrivalPos="83.74" arrivalSpeed="13.67" duration="29.00" routeLength="172.66" waitingTime="4.00" waitingCount="1" stopTime="0.00" timeLoss="16.20" rerouteNo="0" devices="tripinfo_f_1.27" vType="DEFAULT_VEHTYPE" speedFactor="1.00" vaporized=""/>
    <tripinfo id="f_1.28" depart="84.00" departLane="E0_0" departPos="5.10" departSpeed="0.00" departDelay="28.00" arrival="112.00" arrivalLane="E2_0" arrivalPos="83.74" arrivalSpeed="15.37" duration="28.00" routeLength="172.66" waitingTime="5.00" waitingCount="1" stopTime="0.00" timeLoss="16.37" rerouteNo="0" devices="tripinfo_f_1.28" vType="DEFAULT_VEHTYPE" speedFactor="1.14" vaporized=""/>
    <tripinfo id="f_1.29" depart="87.00" departLane="E0_0" departPos="5.10" departSpeed="0.00" departDelay="29.00" arrival="112.00" arrivalLane="E2_1" arrivalPos="83.74" arrivalSpeed="12.25" duration="25.00" routeLength="172.66" waitingTime="2.00" waitingCount="1" stopTime="0.00" timeLoss="11.77" rerouteNo="0" devices="tripinfo_f_1.29" vType="DEFAULT_VEHTYPE" speedFactor="0.97" vaporized=""/>
    <tripinfo id="f_1.30" depart="89.00" departLane="E0_0" departPos="5.10" departSpeed="0.00" departDelay="29.00" arrival="113.00" arrivalLane="E2_0" arrivalPos="83.74" arrivalSpeed="15.01" duration="24.00" routeLength="172.66" waitingTime="1.00" waitingCount="1" stopTime="0.00" timeLoss="12.82" rerouteNo="0" devices="tripinfo_f_1.30" vType="DEFAULT_VEHTYPE" speedFactor="1.12" vaporized=""/>
    <tripinfo id="f_1.31" depart="92.00" departLane="E0_0" departPos="5.10" departSpeed="0.00" departDelay="30.00" arrival="114.00" arrivalLane="E2_1" arrivalPos="83.74" arrivalSpeed="12.77" duration="22.00" routeLength="172.66" waitingTime="0.00" waitingCount="0" stopTime="0.00" timeLoss="8.74" rerouteNo="0" devices="tripinfo_f_1.31" vType="DEFAULT_VEHTYPE" speedFactor="0.99" vaporized=""/>
    <tripinfo id="f_1.32" depart="94.00" departLane="E0_0" departPos="5.10" departSpeed="0.00" departDelay="30.00" arrival="116.00" arrivalLane="E2_0" arrivalPos="83.74" arrivalSpeed="11.32" duration="22.00" routeLength="172.66" waitingTime="0.00" waitingCount="0" stopTime="0.00" timeLoss="7.77" rerouteNo="0" devices="tripinfo_f_1.32" vType="DEFAULT_VEHTYPE" speedFactor="0.88" vaporized=""/>
    <tripinfo id="f_1.33" depart="97.00" departLane="E0_0" departPos="5.10" departSpeed="0.00" departDelay="31.00" arrival="116.00" arrivalLane="E2_1" arrivalPos="83.74" arrivalSpeed="11.68" duration="19.00" routeLength="172.66" waitingTime="0.00" waitingCount="0" stopTime="0.00" timeLoss="5.10" rerouteNo="0" devices="tripinfo_f_1.33" vType="DEFAULT_VEHTYPE" speedFactor="0.91" vaporized=""/>
    <tripinfo id="f_1.34" depart="98.00" departLane="E0_0" departPos="5.10" departSpeed="0.00" departDelay="30.00" arrival="118.00" arrivalLane="E2_0" arrivalPos="83.74" arrivalSpeed="13.83" duration="20.00" routeLength="172.66" waitingTime="0.00" waitingCount="0" stopTime="0.00" timeLoss="7.30" rerouteNo="0" devices="tripinfo_f_1.34" vType="DEFAULT_VEHTYPE" speedFactor="1.02" vaporized=""/>
    <tripinfo id="f_1.35" depart="101.00" departLane="E0_0" departPos="5.10" departSpeed="0.00" departDelay="31.00" arrival="118.00" arrivalLane="E2_1" arrivalPos="83.74" arrivalSpeed="12.31" duration="17.00" routeLength="172.66" waitingTime="0.00" waitingCount="0" stopTime="0.00" timeLoss="3.72" rerouteNo="0" devices="tripinfo_f_1.35" vType="DEFAULT_VEHTYPE" speedFactor="0.97" vaporized=""/>
    <tripinfo id="f_1.36" depart="102.00" departLane="E0_0" departPos="5.10" departSpeed="0.00" departDelay="30.00" arrival="120.00" arrivalLane="E2_0" arrivalPos="83.74" arrivalSpeed="14.13" duration="18.00" routeLength="172.66" waitingTime="0.00" waitingCount="0" stopTime="0.00" timeLoss="5.42" rerouteNo="0" devices="tripinfo_f_1.36" vType="DEFAULT_VEHTYPE" speedFactor="1.06" vaporized=""/>
    <tripinfo id="f_1.37" depart="105.00" departLane="E0_0" departPos="5.10" departSpeed="0.00" departDelay="31.00" arrival="122.00" arrivalLane="E2_0" arrivalPos="83.74" arrivalSpeed="13.29" duration="17.00" routeLength="172.66" waitingTime="0.00" waitingCount="0" stopTime="0.00" timeLoss="3.62" rerouteNo="0" devices="tripinfo_f_1.37" vType="DEFAULT_VEHTYPE" speedFactor="0.98" vaporized=""/>
    <tripinfo id="f_1.38" depart="108.00" departLane="E0_0" departPos="5.10" departSpeed="0.00" departDelay="32.00" arrival="125.00" arrivalLane="E2_0" arrivalPos="83.74" arrivalSpeed="12.91" duration="17.00" routeLength="172.66" waitingTime="0.00" waitingCount="0" stopTime="0.00" timeLoss="3.55" rerouteNo="0" devices="tripinfo_f_1.38" vType="DEFAULT_VEHTYPE" speedFactor="0.98" vaporized=""/>
    <tripinfo id="f_1.39" depart="111.00" departLane="E0_0" departPos="5.10" departSpeed="0.00" departDelay="33.00" arrival="127.00" arrivalLane="E2_0" arrivalPos="83.74" arrivalSpeed="14.83" duration="16.00" routeLength="172.66" waitingTime="0.00" waitingCount="0" stopTime="0.00" timeLoss="3.64" rerouteNo="0" devices="tripinfo_f_1.39" vType="DEFAULT_VEHTYPE" speedFactor="1.09" vaporized=""/>
    <tripinfo id="f_1.40" depart="114.00" departLane="E0_0" departPos="5.10" departSpeed="0.00" departDelay="34.00" arrival="131.00" arrivalLane="E2_0" arrivalPos="83.74" arrivalSpeed="13.35" duration="17.00" routeLength="172.66" waitingTime="0.00" waitingCount="0" stopTime="0.00" timeLoss="3.62" rerouteNo="0" devices="tripinfo_f_1.40" vType="DEFAULT_VEHTYPE" speedFactor="1.00" vaporized=""/>
    <tripinfo id="f_1.41" depart="117.00" departLane="E0_0" departPos="5.10" departSpeed="0.00" departDelay="35.00" arrival="134.00" arrivalLane="E2_0" arrivalPos="83.74" arrivalSpeed="13.33" duration="17.00" routeLength="172.66" waitingTime="0.00" waitingCount="0" stopTime="0.00" timeLoss="3.90" rerouteNo="0" devices="tripinfo_f_1.41" vType="DEFAULT_VEHTYPE" speedFactor="0.97" vaporized=""/>
    <tripinfo id="f_1.42" depart="120.00" departLane="E0_0" departPos="5.10" departSpeed="0.00" departDelay="36.00" arrival="137.00" arrivalLane="E2_0" arrivalPos="83.74" arrivalSpeed="12.35" duration="17.00" routeLength="172.66" waitingTime="0.00" waitingCount="0" stopTime="0.00" timeLoss="4.14" rerouteNo="0" devices="tripinfo_f_1.42" vType="DEFAULT_VEHTYPE" speedFactor="0.98" vaporized=""/>
    <tripinfo id="f_1.43" depart="123.00" departLane="E0_0" departPos="5.10" departSpeed="0.00" departDelay="37.00" arrival="140.00" arrivalLane="E2_0" arrivalPos="83.74" arrivalSpeed="13.48" duration="17.00" routeLength="172.66" waitingTime="0.00" waitingCount="0" stopTime="0.00" timeLoss="4.65" rerouteNo="0" devices="tripinfo_f_1.43" vType="DEFAULT_VEHTYPE" speedFactor="1.04" vaporized=""/>
    <tripinfo id="f_1.44" depart="127.00" departLane="E0_0" departPos="5.10" departSpeed="0.00" departDelay="39.00" arrival="143.00" arrivalLane="E2_0" arrivalPos="83.74" arrivalSpeed="13.14" duration="16.00" routeLength="172.66" waitingTime="0.00" waitingCount="0" stopTime="0.00" timeLoss="3.30" rerouteNo="0" devices="tripinfo_f_1.44" vType="DEFAULT_VEHTYPE" speedFactor="1.02" vaporized=""/>
    <tripinfo id="f_1.45" depart="130.00" departLane="E0_0" departPos="5.10" departSpeed="0.00" departDelay="40.00" arrival="148.00" arrivalLane="E2_0" arrivalPos="83.74" arrivalSpeed="12.27" duration="18.00" routeLength="172.66" waitingTime="0.00" waitingCount="0" stopTime="0.00" timeLoss="3.53" rerouteNo="0" devices="tripinfo_f_1.45" vType="DEFAULT_VEHTYPE" speedFactor="0.89" vaporized=""/>
    <tripinfo id="f_1.46" depart="133.00" departLane="E0_0" departPos="5.10" departSpeed="0.00" departDelay="41.00" arrival="150.00" arrivalLane="E2_0" arrivalPos="83.74" arrivalSpeed="11.82" duration="17.00" routeLength="172.66" waitingTime="0.00" waitingCount="0" stopTime="0.00" timeLoss="3.29" rerouteNo="0" devices="tripinfo_f_1.46" vType="DEFAULT_VEHTYPE" speedFactor="0.92" vaporized=""/>
    <tripinfo id="f_1.47" depart="136.00" departLane="E0_0" departPos="5.10" departSpeed="0.00" departDelay="42.00" arrival="152.00" arrivalLane="E2_0" arrivalPos="83.74" arrivalSpeed="14.01" duration="16.00" routeLength="172.66" waitingTime="0.00" waitingCount="0" stopTime="0.00" timeLoss="3.61" rerouteNo="0" devices="tripinfo_f_1.47" vType="DEFAULT_VEHTYPE" speedFactor="1.06" vaporized=""/>
    <tripinfo id="f_0.23" depart="76.00" departLane="E1_0" departPos="5.10" departSpeed="0.00" departDelay="30.00" arrival="157.00" arrivalLane="E2_1" arrivalPos="83.74" arrivalSpeed="13.48" duration="81.00" routeLength="173.67" waitingTime="59.00" waitingCount="1" stopTime="0.00" timeLoss="67.81" rerouteNo="0" devices="tripinfo_f_0.23" vType="DEFAULT_VEHTYPE" speedFactor="1.00" vaporized=""/>
    <tripinfo id="f_0.24" depart="79.00" departLane="E1_0" departPos="5.10" departSpeed="0.00" departDelay="31.00" arrival="159.00" arrivalLane="E2_0" arrivalPos="83.74" arrivalSpeed="11.60" duration="80.00" routeLength="178.85" waitingTime="55.00" waitingCount="1" stopTime="0.00" timeLoss="63.89" rerouteNo="0" devices="tripinfo_f_0.24" vType="DEFAULT_VEHTYPE" speedFactor="0.88" vaporized=""/>
    <tripinfo id="f_0.26" depart="85.00" departLane="E1_0" departPos="5.10" departSpeed="0.00" departDelay="33.00" arrival="160.00" arrivalLane="E2_1" arrivalPos="83.74" arrivalSpeed="13.97" duration="75.00" routeLength="173.67" waitingTime="51.00" waitingCount="1" stopTime="0.00" timeLoss="61.37" rerouteNo="0" devices="tripinfo_f_0.26" vType="DEFAULT_VEHTYPE" speedFactor="1.02" vaporized=""/>