<?xml version="1.0" encoding="UTF-8"?>

<!-- generated on 2025-04-06 23:46:26 by Eclipse SUMO sumo Version v1_21_0+0707-ca487ebdee8
<sumoConfiguration xmlns:xsi="http://www.w3.org/2001/XMLSchema-instance" xsi:noNamespaceSchemaLocation="http://sumo.dlr.de/xsd/sumoConfiguration.xsd">

    <input>
        <net-file value="nt1.net.xml"/>
        <route-files value="nt1.rou.xml"/>
        <additional-files value="nt1.add.xml"/>
    </input>

    <output>
        <tripinfo-output value="tripinfo4.xml"/>
    </output>

    <time>
        <begin value="0"/>
        <end value="3600"/>
    </time>

</sumoConfiguration>
-->

<tripinfos xmlns:xsi="http://www.w3.org/2001/XMLSchema-instance" xsi:noNamespaceSchemaLocation="http://sumo.dlr.de/xsd/tripinfo_file.xsd">
    <tripinfo id="f_1.0" depart="0.00" departLane="E0_0" departPos="5.10" departSpeed="0.00" departDelay="0.00" arrival="17.00" arrivalLane="E2_0" arrivalPos="83.74" arrivalSpeed="12.29" duration="17.00" routeLength="172.66" waitingTime="0.00" waitingCount="0" stopTime="0.00" timeLoss="3.32" rerouteNo="0" devices="tripinfo_f_1.0" vType="DEFAULT_VEHTYPE" speedFactor="0.94" vaporized=""/>
    <tripinfo id="f_1.1" depart="3.00" departLane="E0_0" departPos="5.10" departSpeed="0.00" departDelay="1.00" arrival="20.00" arrivalLane="E2_0" arrivalPos="83.74" arrivalSpeed="14.51" duration="17.00" routeLength="172.66" waitingTime="0.00" waitingCount="0" stopTime="0.00" timeLoss="4.58" rerouteNo="0" devices="tripinfo_f_1.1" vType="DEFAULT_VEHTYPE" speedFactor="1.08" vaporized=""/>
    <tripinfo id="f_1.2" depart="6.00" departLane="E0_0" departPos="5.10" departSpeed="0.00" departDelay="2.00" arrival="25.00" arrivalLane="E2_0" arrivalPos="83.74" arrivalSpeed="10.86" duration="19.00" routeLength="172.66" waitingTime="0.00" waitingCount="0" stopTime="0.00" timeLoss="3.17" rerouteNo="0" devices="tripinfo_f_1.2" vType="DEFAULT_VEHTYPE" speedFactor="0.83" vaporized=""/>
    <tripinfo id="f_1.3" depart="9.00" departLane="E0_0" departPos="5.10" departSpeed="0.00" departDelay="3.00" arrival="27.00" arrivalLane="E2_0" arrivalPos="83.74" arrivalSpeed="11.56" duration="18.00" routeLength="172.66" waitingTime="0.00" waitingCount="0" stopTime="0.00" timeLoss="3.31" rerouteNo="0" devices="tripinfo_f_1.3" vType="DEFAULT_VEHTYPE" speedFactor="0.89" vaporized=""/>
    <tripinfo id="f_1.4" depart="12.00" departLane="E0_0" departPos="5.10" departSpeed="0.00" departDelay="4.00" arrival="30.00" arrivalLane="E2_0" arrivalPos="83.74" arrivalSpeed="10.71" duration="18.00" routeLength="172.66" waitingTime="0.00" waitingCount="0" stopTime="0.00" timeLoss="3.16" rerouteNo="0" devices="tripinfo_f_1.4" vType="DEFAULT_VEHTYPE" speedFactor="0.86" vaporized=""/>
    <tripinfo id="f_1.5" depart="15.00" departLane="E0_0" departPos="5.10" departSpeed="0.00" departDelay="5.00" arrival="32.00" arrivalLane="E2_0" arrivalPos="83.74" arrivalSpeed="13.41" duration="17.00" routeLength="172.66" waitingTime="0.00" waitingCount="0" stopTime="0.00" timeLoss="4.13" rerouteNo="0" devices="tripinfo_f_1.5" vType="DEFAULT_VEHTYPE" speedFactor="1.03" vaporized=""/>
    <tripinfo id="f_1.6" depart="18.00" departLane="E0_0" departPos="5.10" departSpeed="0.00" departDelay="6.00" arrival="34.00" arrivalLane="E2_0" arrivalPos="83.74" arrivalSpeed="14.50" duration="16.00" routeLength="172.66" waitingTime="0.00" waitingCount="0" stopTime="0.00" timeLoss="4.24" rerouteNo="0" devices="tripinfo_f_1.6" vType="DEFAULT_VEHTYPE" speedFactor="1.12" vaporized=""/>
    <tripinfo id="f_1.7" depart="21.00" departLane="E0_0" departPos="5.10" departSpeed="0.00" departDelay="7.00" arrival="38.00" arrivalLane="E2_0" arrivalPos="83.74" arrivalSpeed="12.23" duration="17.00" routeLength="172.66" waitingTime="0.00" waitingCount="0" stopTime="0.00" timeLoss="3.22" rerouteNo="0" devices="tripinfo_f_1.7" vType="DEFAULT_VEHTYPE" speedFactor="0.93" vaporized=""/>
    <tripinfo id="f_1.8" depart="24.00" departLane="E0_0" departPos="5.10" departSpeed="0.00" departDelay="8.00" arrival="41.00" arrivalLane="E2_0" arrivalPos="83.74" arrivalSpeed="12.75" duration="17.00" routeLength="172.66" waitingTime="0.00" waitingCount="0" stopTime="0.00" timeLoss="3.51" rerouteNo="0" devices="tripinfo_f_1.8" vType="DEFAULT_VEHTYPE" speedFactor="0.94" vaporized=""/>
    <tripinfo id="f_1.9" depart="27.00" departLane="E0_0" departPos="5.10" departSpeed="0.00" departDelay="9.00" arrival="43.00" arrivalLane="E2_0" arrivalPos="83.74" arrivalSpeed="15.22" duration="16.00" routeLength="172.66" waitingTime="0.00" waitingCount="0" stopTime="0.00" timeLoss="4.66" rerouteNo="0" devices="tripinfo_f_1.9" vType="DEFAULT_VEHTYPE" speedFactor="1.16" vaporized=""/>
    <tripinfo id="f_1.10" depart="30.00" departLane="E0_0" departPos="5.10" departSpeed="0.00" departDelay="10.00" arrival="47.00" arrivalLane="E2_0" arrivalPos="83.74" arrivalSpeed="13.27" duration="17.00" routeLength="172.66" waitingTime="0.00" waitingCount="0" stopTime="0.00" timeLoss="4.24" rerouteNo="0" devices="tripinfo_f_1.10" vType="DEFAULT_VEHTYPE" speedFactor="1.01" vaporized=""/>
    <tripinfo id="f_0.0" depart="0.00" departLane="E1_0" departPos="5.10" departSpeed="0.00" departDelay="0.00" arrival="54.00" arrivalLane="E2_1" arrivalPos="83.74" arrivalSpeed="14.64" duration="54.00" routeLength="173.67" waitingTime="33.00" waitingCount="1" stopTime="0.00" timeLoss="41.58" rerouteNo="0" devices="tripinfo_f_0.0" vType="DEFAULT_VEHTYPE" speedFactor="1.06" vaporized=""/>
    <tripinfo id="f_0.1" depart="3.00" departLane="E1_0" departPos="5.10" departSpeed="0.00" departDelay="1.00" arrival="55.00" arrivalLane="E2_0" arrivalPos="83.74" arrivalSpeed="13.27" duration="52.00" routeLength="178.85" waitingTime="29.00" waitingCount="1" stopTime="0.00" timeLoss="38.52" rerouteNo="0" devices="tripinfo_f_0.1" vType="DEFAULT_VEHTYPE" speedFactor="1.01" vaporized=""/>
    <tripinfo id="f_0.3" depart="9.00" departLane="E1_0" departPos="5.10" departSpeed="0.00" departDelay="3.00" arrival="57.00" arrivalLane="E2_1" arrivalPos="83.74" arrivalSpeed="13.89" duration="48.00" routeLength="173.67" waitingTime="24.00" waitingCount="1" stopTime="0.00" timeLoss="34.88" rerouteNo="0" devices="tripinfo_f_0.3" vType="DEFAULT_VEHTYPE" speedFactor="1.05" vaporized=""/>
    <tripinfo id="f_0.2" depart="6.00" departLane="E1_0" departPos="5.10" departSpeed="0.00" departDelay="2.00" arrival="58.00" arrivalLane="E2_0" arrivalPos="83.74" arrivalSpeed="14.02" duration="52.00" routeLength="178.85" waitingTime="27.00" waitingCount="1" stopTime="0.00" timeLoss="38.27" rerouteNo="0" devices="tripinfo_f_0.2" vType="DEFAULT_VEHTYPE" speedFactor="1.03" vaporized=""/>
    <tripinfo id="f_0.5" depart="15.00" departLane="E1_0" departPos="5.10" departSpeed="0.00" departDelay="5.00" arrival="59.00" arrivalLane="E2_1" arrivalPos="83.74" arrivalSpeed="13.90" duration="44.00" routeLength="173.67" waitingTime="19.00" waitingCount="1" stopTime="0.00" timeLoss="31.67" rerouteNo="0" devices="tripinfo_f_0.5" vType="DEFAULT_VEHTYPE" speedFactor="1.09" vaporized=""/>
    <tripinfo id="f_0.4" depart="12.00" departLane="E1_0" departPos="5.10" departSpeed="0.00" departDelay="4.00" arrival="61.00" arrivalLane="E2_0" arrivalPos="83.74" arrivalSpeed="12.50" duration="49.00" routeLength="178.85" waitingTime="23.00" waitingCount="1" stopTime="0.00" timeLoss="33.67" rerouteNo="0" devices="tripinfo_f_0.4" vType="DEFAULT_VEHTYPE" speedFactor="0.94" vaporized=""/>
    <tripinfo id="f_0.6" depart="18.00" departLane="E1_0" departPos="5.10" departSpeed="0.00" departDelay="6.00" arrival="62.00" arrivalLane="E2_0" arrivalPos="83.74" arrivalSpeed="13.93" duration="44.00" routeLength="178.85" waitingTime="19.00" waitingCount="1" stopTime="0.00" timeLoss="30.84" rerouteNo="0" devices="tripinfo_f_0.6" vType="DEFAULT_VEHTYPE" speedFactor="1.05" vaporized=""/>
    <tripinfo id="f_0.7" depart="21.00" departLane="E1_0" departPos="5.10" departSpeed="0.00" departDelay="7.00" arrival="62.00" arrivalLane="E2_1" arrivalPos="83.74" arrivalSpeed="12.65" duration="41.00" routeLength="173.67" waitingTime="16.00" waitingCount="1" stopTime="0.00" timeLoss="27.87" rerouteNo="0" devices="tripinfo_f_0.7" vType="DEFAULT_VEHTYPE" speedFactor="0.99" vaporized=""/>
    <tripinfo id="f_0.8" depart="24.00" departLane="E1_0" departPos="5.10" departSpeed="0.00" departDelay="8.00" arrival="66.00" arrivalLane="E2_0" arrivalPos="83.74" arrivalSpeed="12.06" duration="42.00" routeLength="178.85" waitingTime="14.00" waitingCount="1" stopTime="0.00" timeLoss="25.85" rerouteNo="0" devices="tripinfo_f_0.8" vType="DEFAULT_VEHTYPE" speedFactor="0.88" vaporized=""/>
    <tripinfo id="f_0.9" depart="27.00" departLane="E1_0" departPos="5.10" departSpeed="0.00" departDelay="9.00" arrival="66.00" arrivalLane="E2_1" arrivalPos="83.74" arrivalSpeed="11.76" duration="39.00" routeLength="173.67" waitingTime="12.00" waitingCount="1" stopTime="0.00" timeLoss="24.31" rerouteNo="0" devices="tripinfo_f_0.9" vType="DEFAULT_VEHTYPE" speedFactor="0.94" vaporized=""/>
    <tripinfo id="f_0.10" depart="30.00" departLane="E1_0" departPos="5.10" departSpeed="0.00" departDelay="10.00" arrival="67.00" arrivalLane="E2_0" arrivalPos="83.74" arrivalSpeed="12.86" duration="37.00" routeLength="178.85" waitingTime="9.00" waitingCount="1" stopTime="0.00" timeLoss="23.73" rerouteNo="0" devices="tripinfo_f_0.10" vType="DEFAULT_VEHTYPE" speedFactor="1.02" vaporized=""/>
    <tripinfo id="f_0.11" depart="33.00" departLane="E1_0" departPos="5.10" departSpeed="0.00" departDelay="11.00" arrival="69.00" arrivalLane="E2_1" arrivalPos="83.74" arrivalSpeed="13.42" duration="36.00" routeLength="173.67" waitingTime="6.00" waitingCount="1" stopTime="0.00" timeLoss="21.34" rerouteNo="0" devices="tripinfo_f_0.11" vType="DEFAULT_VEHTYPE" speedFactor="0.97" vaporized=""/>
    <tripinfo id="f_0.12" depart="36.00" departLane="E1_0" departPos="5.10" departSpeed="0.00" departDelay="12.00" arrival="71.00" arrivalLane="E2_0" arrivalPos="83.74" arrivalSpeed="10.69" duration="35.00" routeLength="178.85" waitingTime="7.00" waitingCount="1" stopTime="0.00" timeLoss="18.67" rerouteNo="0" devices="tripinfo_f_0.12" vType="DEFAULT_VEHTYPE" speedFactor="0.83" vaporized=""/>
    <tripinfo id="f_0.13" depart="39.00" departLane="E1_0" departPos="5.10" departSpeed="0.00" departDelay="13.00" arrival="72.00" arrivalLane="E2_1" arrivalPos="83.74" arrivalSpeed="12.25" duration="33.00" routeLength="173.67" waitingTime="3.00" waitingCount="1" stopTime="0.00" timeLoss="17.60" rerouteNo="0" devices="tripinfo_f_0.13" vType="DEFAULT_VEHTYPE" speedFactor="0.92" vaporized=""/>
    <tripinfo id="f_0.14" depart="42.00" departLane="E1_0" departPos="5.10" departSpeed="0.00" departDelay="14.00" arrival="73.00" arrivalLane="E2_0" arrivalPos="83.74" arrivalSpeed="14.10" duration="31.00" routeLength="178.85" waitingTime="1.00" waitingCount="1" stopTime="0.00" timeLoss="18.75" rerouteNo="0" devices="tripinfo_f_0.14" vType="DEFAULT_VEHTYPE" speedFactor="1.13" vaporized=""/>
    <tripinfo id="f_0.15" depart="45.00" departLane="E1_0" departPos="5.10" departSpeed="0.00" departDelay="15.00" arrival="73.00" arrivalLane="E2_1" arrivalPos="83.74" arrivalSpeed="14.77" duration="28.00" routeLength="173.67" waitingTime="0.00" waitingCount="0" stopTime="0.00" timeLoss="16.67" rerouteNo="0" devices="tripinfo_f_0.15" vType="DEFAULT_VEHTYPE" speedFactor="1.18" vaporized=""/>
    <tripinfo id="f_0.16" depart="47.00" departLane="E1_0" departPos="5.10" departSpeed="0.00" departDelay="15.00" arrival="75.00" arrivalLane="E2_0" arrivalPos="83.74" arrivalSpeed="13.48" duration="28.00" routeLength="178.85" waitingTime="0.00" waitingCount="0" stopTime="0.00" timeLoss="13.94" rerouteNo="0" devices="tripinfo_f_0.16" vType="DEFAULT_VEHTYPE" speedFactor="1.01" vaporized=""/>
    <tripinfo id="f_0.17" depart="50.00" departLane="E1_0" departPos="5.10" departSpeed="0.00" departDelay="16.00" arrival="76.00" arrivalLane="E2_1" arrivalPos="83.74" arrivalSpeed="12.74" duration="26.00" routeLength="173.67" waitingTime="0.00" waitingCount="0" stopTime="0.00" timeLoss="12.19" rerouteNo="0" devices="tripinfo_f_0.17" vType="DEFAULT_VEHTYPE" speedFactor="0.99" vaporized=""/>
    <tripinfo id="f_0.18" depart="51.00" departLane="E1_0" departPos="5.10" departSpeed="0.00" departDelay="15.00" arrival="77.00" arrivalLane="E2_0" arrivalPos="83.74" arrivalSpeed="13.43" duration="26.00" routeLength="178.85" waitingTime="0.00" waitingCount="0" stopTime="0.00" timeLoss="11.65" rerouteNo="0" devices="tripinfo_f_0.18" vType="DEFAULT_VEHTYPE" speedFactor="0.97" vaporized=""/>
    <tripinfo id="f_0.19" depart="54.00" departLane="E1_0" departPos="5.10" departSpeed="0.00" departDelay="16.00" arrival="78.00" arrivalLane="E2_1" arrivalPos="83.74" arrivalSpeed="15.01" duration="24.00" routeLength="173.67" waitingTime="0.00" waitingCount="0" stopTime="0.00" timeLoss="10.94" rerouteNo="0" devices="tripinfo_f_0.19" vType="DEFAULT_VEHTYPE" speedFactor="1.10" vaporized=""/>
    <tripinfo id="f_0.20" depart="55.00" departLane="E1_0" departPos="5.10" departSpeed="0.00" departDelay="15.00" arrival="79.00" arrivalLane="E2_0" arrivalPos="83.74" arrivalSpeed="13.18" duration="24.00" routeLength="178.85" waitingTime="0.00" waitingCount="0" stopTime="0.00" timeLoss="10.32" rerouteNo="0" devices="tripinfo_f_0.20" vType="DEFAULT_VEHTYPE" speedFactor="1.03" vaporized=""/>
    <tripinfo id="f_0.21" depart="58.00" departLane="E1_0" departPos="5.10" departSpeed="0.00" departDelay="16.00" arrival="80.00" arrivalLane="E2_1" arrivalPos="83.74" arrivalSpeed="13.90" duration="22.00" routeLength="173.67" waitingTime="0.00" waitingCount="0" stopTime="0.00" timeLoss="9.92" rerouteNo="0" devices="tripinfo_f_0.21" vType="DEFAULT_VEHTYPE" speedFactor="1.09" vaporized=""/>
    <tripinfo id="f_0.22" depart="59.00" departLane="E1_0" departPos="5.10" departSpeed="0.00" departDelay="15.00" arrival="81.00" arrivalLane="E2_0" arrivalPos="83.74" arrivalSpeed="14.16" duration="22.00" routeLength="178.85" waitingTime="0.00" waitingCount="0" stopTime="0.00" timeLoss="8.61" rerouteNo="0" devices="tripinfo_f_0.22" vType="DEFAULT_VEHTYPE" speedFactor="1.04" vaporized=""/>
    <tripinfo id="f_0.23" depart="62.00" departLane="E1_0" departPos="5.10" departSpeed="0.00" departDelay="16.00" arrival="83.00" arrivalLane="E2_1" arrivalPos="83.74" arrivalSpeed="13.13" duration="21.00" routeLength="173.67" waitingTime="0.00" waitingCount="0" stopTime="0.00" timeLoss="7.50" rerouteNo="0" devices="tripinfo_f_0.23" vType="DEFAULT_VEHTYPE" speedFactor="1.00" vaporized=""/>
    <tripinfo id="f_0.24" depart="65.00" departLane="E1_0" departPos="5.10" departSpeed="0.00" departDelay="17.00" arrival="86.00" arrivalLane="E2_0" arrivalPos="83.74" arrivalSpeed="11.42" duration="21.00" routeLength="178.85" waitingTime="0.00" waitingCount="0" stopTime="0.00" timeLoss="4.73" rerouteNo="0" devices="tripinfo_f_0.24" vType="DEFAULT_VEHTYPE" speedFactor="0.88" vaporized=""/>
    <tripinfo id="f_0.25" depart="68.00" departLane="E1_0" departPos="5.10" departSpeed="0.00" departDelay="18.00" arrival="89.00" arrivalLane="E2_0" arrivalPos="83.74" arrivalSpeed="11.47" duration="21.00" routeLength="178.85" waitingTime="0.00" waitingCount="0" stopTime="0.00" timeLoss="4.61" rerouteNo="0" devices="tripinfo_f_0.25" vType="DEFAULT_VEHTYPE" speedFactor="0.85" vaporized=""/>
    <tripinfo id="f_0.26" depart="71.00" departLane="E1_0" departPos="5.10" departSpeed="0.00" departDelay="19.00" arrival="91.00" arrivalLane="E2_0" arrivalPos="83.74" arrivalSpeed="12.92" duration="20.00" routeLength="178.85" waitingTime="0.00" waitingCount="0" stopTime="0.00" timeLoss="5.77" rerouteNo="0" devices="tripinfo_f_0.26" vType="DEFAULT_VEHTYPE" speedFactor="1.02" vaporized=""/>
    <tripinfo id="f_0.27" depart="74.00" departLane="E1_0" departPos="5.10" departSpeed="0.00" departDelay="20.00" arrival="93.00" arrivalLane="E2_0" arrivalPos="83.74" arrivalSpeed="12.72" duration="19.00" routeLength="178.85" waitingTime="0.00" waitingCount="0" stopTime="0.00" timeLoss="5.28" rerouteNo="0" devices="tripinfo_f_0.27" vType="DEFAULT_VEHTYPE" speedFactor="1.00" vaporized=""/>
    <tripinfo id="f_1.11" depart="33.00" departLane="E0_0" departPos="5.10" departSpeed="0.00" departDelay="11.00" arrival="103.00" arrivalLane="E2_0" arrivalPos="83.74" arrivalSpeed="11.91" duration="70.00" routeLength="172.66" waitingTime="47.00" waitingCount="1" stopTime="0.00" timeLoss="55.12" rerouteNo="0" devices="tripinfo_f_1.11" vType="DEFAULT_VEHTYPE" speedFactor="0.89" vaporized=""/>
    <tripinfo id="f_1.12" depart="36.00" departLane="E0_0" departPos="5.10" departSpeed="0.00" departDelay="12.00" arrival="103.00" arrivalLane="E2_1" arrivalPos="83.74" arrivalSpeed="11.12" duration="67.00" routeLength="172.66" waitingTime="44.00" waitingCount="1" stopTime="0.00" timeLoss="51.87" rerouteNo="0" devices="tripinfo_f_1.12" vType="DEFAULT_VEHTYPE" speedFactor="0.87" vaporized=""/>
    <tripinfo id="f_1.13" depart="39.00" departLane="E0_0" departPos="5.10" departSpeed="0.00" departDelay="13.00" arrival="104.00" arrivalLane="E2_0" arrivalPos="83.74" arrivalSpeed="12.22" duration="65.00" routeLength="172.66" waitingTime="42.00" waitingCount="1" stopTime="0.00" timeLoss="51.71" rerouteNo="0" devices="tripinfo_f_1.13" vType="DEFAULT_VEHTYPE" speedFactor="0.95" vaporized=""/>
    <tripinfo id="f_1.14" depart="42.00" departLane="E0_0" departPos="5.10" departSpeed="0.00" departDelay="14.00" arrival="104.00" arrivalLane="E2_1" arrivalPos="83.74" arrivalSpeed="12.13" duration="62.00" routeLength="172.66" waitingTime="39.00" waitingCount="1" stopTime="0.00" timeLoss="48.46" rerouteNo="0" devices="tripinfo_f_1.14" vType="DEFAULT_VEHTYPE" speedFactor="0.93" vaporized=""/>
    <tripinfo id="f_1.15" depart="45.00" departLane="E0_0" departPos="5.10" departSpeed="0.00" departDelay="15.00" arrival="106.00" arrivalLane="E2_0" arrivalPos="83.74" arrivalSpeed="15.96" duration="61.00" routeLength="172.66" waitingTime="38.00" waitingCount="1" stopTime="0.00" timeLoss="49.60" rerouteNo="0" devices="tripinfo_f_1.15" vType="DEFAULT_VEHTYPE" speedFactor="1.15" vaporized=""/>
    <tripinfo id="f_1.16" depart="48.00" departLane="E0_0" departPos="5.10" departSpeed="0.00" departDelay="16.00" arrival="106.00" arrivalLane="E2_1" arrivalPos="83.74" arrivalSpeed="15.78" duration="58.00" routeLength="172.66" waitingTime="35.00" waitingCount="1" stopTime="0.00" timeLoss="46.83" rerouteNo="0" devices="tripinfo_f_1.16" vType="DEFAULT_VEHTYPE" speedFactor="1.17" vaporized=""/>
    <tripinfo id="f_1.17" depart="51.00" departLane="E0_0" departPos="5.10" departSpeed="0.00" departDelay="17.00" arrival="108.00" arrivalLane="E2_0" arrivalPos="83.74" arrivalSpeed="13.57" duration="57.00" routeLength="172.66" waitingTime="33.00" waitingCount="1" stopTime="0.00" timeLoss="44.07" rerouteNo="0" devices="tripinfo_f_1.17" vType="DEFAULT_VEHTYPE" speedFactor="1.02" vaporized=""/>
    <tripinfo id="f_1.18" depart="54.00" departLane="E0_0" departPos="5.10" departSpeed="0.00" departDelay="18.00" arrival="108.00" arrivalLane="E2_1" arrivalPos="83.74" arrivalSpeed="16.04" duration="54.00" routeLength="172.66" waitingTime="30.00" waitingCount="1" stopTime="0.00" timeLoss="42.60" rerouteNo="0" devices="tripinfo_f_1.18" vType="DEFAULT_VEHTYPE" speedFactor="1.18" vaporized=""/>
    <tripinfo id="f_1.20" depart="60.00" departLane="E0_0" departPos="5.10" departSpeed="0.00" departDelay="20.00" arrival="110.00" arrivalLane="E2_1" arrivalPos="83.74" arrivalSpeed="13.12" duration="50.00" routeLength="172.66" waitingTime="24.00" waitingCount="1" stopTime="0.00" timeLoss="36.17" rerouteNo="0" devices="tripinfo_f_1.20" vType="DEFAULT_VEHTYPE" speedFactor="0.96" vaporized=""/>
    <tripinfo id="f_1.19" depart="57.00" departLane="E0_0" departPos="5.10" departSpeed="0.00" departDelay="19.00" arrival="111.00" arrivalLane="E2_0" arrivalPos="83.74" arrivalSpeed="11.41" duration="54.00" routeLength="172.66" waitingTime="29.00" waitingCount="1" stopTime="0.00" timeLoss="39.31" rerouteNo="0" devices="tripinfo_f_1.19" vType="DEFAULT_VEHTYPE" speedFactor="0.90" vaporized=""/>
    <tripinfo id="f_1.22" depart="66.00" departLane="E0_0" departPos="5.10" departSpeed="0.00" departDelay="22.00" arrival="111.00" arrivalLane="E2_1" arrivalPos="83.74" arrivalSpeed="14.43" duration="45.00" routeLength="172.66" waitingTime="21.00" waitingCount="1" stopTime="0.00" timeLoss="33.45" rerouteNo="0" devices="tripinfo_f_1.22" vType="DEFAULT_VEHTYPE" speedFactor="1.09" vaporized=""/>
    <tripinfo id="f_1.21" depart="63.00" departLane="E0_0" departPos="5.10" departSpeed="0.00" departDelay="21.00" arrival="112.00" arrivalLane="E2_0" arrivalPos="83.74" arrivalSpeed="13.17" duration="49.00" routeLength="172.66" waitingTime="24.00" waitingCount="1" stopTime="0.00" timeLoss="36.75" rerouteNo="0" devices="tripinfo_f_1.21" vType="DEFAULT_VEHTYPE" speedFactor="1.04" vaporized=""/>
    <tripinfo id="f_1.23" depart="69.00" departLane="E0_0" departPos="5.10" departSpeed="0.00" departDelay="23.00" arrival="114.00" arrivalLane="E2_0" arrivalPos="83.74" arrivalSpeed="11.74" duration="45.00" routeLength="172.66" waitingTime="22.00" waitingCount="1" stopTime="0.00" timeLoss="31.09" rerouteNo="0" devices="tripinfo_f_1.23" vType="DEFAULT_VEHTYPE" speedFactor="0.90" vaporized=""/>
    <tripinfo id="f_1.24" depart="72.00" departLane="E0_0" departPos="5.10" departSpeed="0.00" departDelay="24.00" arrival="115.00" arrivalLane="E2_1" arrivalPos="83.74" arrivalSpeed="11.55" duration="43.00" routeLength="172.66" waitingTime="18.00" waitingCount="1" stopTime="0.00" timeLoss="27.78" rerouteNo="0" devices="tripinfo_f_1.24" vType="DEFAULT_VEHTYPE" speedFactor="0.85" vaporized=""/>
    <tripinfo id="f_1.25" depart="75.00" departLane="E0_0" departPos="5.10" departSpeed="0.00" departDelay="25.00" arrival="116.00" arrivalLane="E2_0" arrivalPos="83.74" arrivalSpeed="14.16" duration="41.00" routeLength="172.66" waitingTime="17.00" waitingCount="1" stopTime="0.00" timeLoss="29.94" rerouteNo="0" devices="tripinfo_f_1.25" vType="DEFAULT_VEHTYPE" speedFactor="1.17" vaporized=""/>
    <tripinfo id="f_1.26" depart="78.00" departLane="E0_0" departPos="5.10" departSpeed="0.00" departDelay="26.00" arrival="117.00" arrivalLane="E2_1" arrivalPos="83.74" arrivalSpeed="14.26" duration="39.00" routeLength="172.66" waitingTime="14.00" waitingCount="1" stopTime="0.00" timeLoss="26.77" rerouteNo="0" devices="tripinfo_f_1.26" vType="DEFAULT_VEHTYPE" speedFactor="1.10" vaporized=""/>
    <tripinfo id="f_1.27" depart="79.00" departLane="E0_0" departPos="5.10" departSpeed="0.00" departDelay="25.00" arrival="118.00" arrivalLane="E2_0" arrivalPos="83.74" arrivalSpeed="13.42" duration="39.00" routeLength="172.66" waitingTime="16.00" waitingCount="1" stopTime="0.00" timeLoss="25.86" rerouteNo="0" devices="tripinfo_f_1.27" vType="DEFAULT_VEHTYPE" speedFactor="1.00" vaporized=""/>
    <tripinfo id="f_1.28" depart="82.00" departLane="E0_0" departPos="5.10" departSpeed="0.00" departDelay="26.00" arrival="118.00" arrivalLane="E2_1" arrivalPos="83.74" arrivalSpeed="14.89" duration="36.00" routeLength="172.66" waitingTime="11.00" waitingCount="1" stopTime="0.00" timeLoss="24.90" rerouteNo="0" devices="tripinfo_f_1.28" vType="DEFAULT_VEHTYPE" speedFactor="1.14" vaporized=""/>
    <tripinfo id="f_1.29" depart="83.00" departLane="E0_0" departPos="5.10" departSpeed="0.00" departDelay="25.00" arrival="120.00" arrivalLane="E2_0" arrivalPos="83.74" arrivalSpeed="13.12" duration="37.00" routeLength="172.66" waitingTime="15.00" waitingCount="1" stopTime="0.00" timeLoss="23.47" rerouteNo="0" devices="tripinfo_f_1.29" vType="DEFAULT_VEHTYPE" speedFactor="0.97" vaporized=""/>
    <tripinfo id="f_1.30" depart="104.00" departLane="E0_0" departPos="5.10" departSpeed="0.00" departDelay="44.00" arrival="121.00" arrivalLane="E2_0" arrivalPos="83.74" arrivalSpeed="15.29" duration="17.00" routeLength="172.66" waitingTime="0.00" waitingCount="0" stopTime="0.00" timeLoss="5.75" rerouteNo="0" devices="tripinfo_f_1.30" vType="DEFAULT_VEHTYPE" speedFactor="1.12" vaporized=""/>
    <tripinfo id="f_1.31" depart="108.00" departLane="E0_0" departPos="5.10" departSpeed="0.00" departDelay="46.00" arrival="124.00" arrivalLane="E2_0" arrivalPos="83.74" arrivalSpeed="12.82" duration="16.00" routeLength="172.66" waitingTime="0.00" waitingCount="0" stopTime="0.00" timeLoss="3.34" rerouteNo="0" devices="tripinfo_f_1.31" vType="DEFAULT_VEHTYPE" speedFactor="0.99" vaporized=""/>
    <tripinfo id="f_1.32" depart="111.00" departLane="E0_0" departPos="5.10" departSpeed="0.00" departDelay="47.00" arrival="129.00" arrivalLane="E2_0" arrivalPos="83.74" arrivalSpeed="11.18" duration="18.00" routeLength="172.66" waitingTime="0.00" waitingCount="0" stopTime="0.00" timeLoss="3.05" rerouteNo="0" devices="tripinfo_f_1.32" vType="DEFAULT_VEHTYPE" speedFactor="0.88" vaporized=""/>
    <tripinfo id="f_1.33" depart="114.00" departLane="E0_0" departPos="5.10" departSpeed="0.00" departDelay="48.00" arrival="131.00" arrivalLane="E2_0" arrivalPos="83.74" arrivalSpeed="12.19" duration="17.00" routeLength="172.66" waitingTime="0.00" waitingCount="0" stopTime="0.00" timeLoss="3.00" rerouteNo="0" devices="tripinfo_f_1.33" vType="DEFAULT_VEHTYPE" speedFactor="0.91" vaporized=""/>
    <tripinfo id="f_1.34" depart="117.00" departLane="E0_0" departPos="5.10" departSpeed="0.00" departDelay="49.00" arrival="133.00" arrivalLane="E2_0" arrivalPos="83.74" arrivalSpeed="14.00" duration="16.00" routeLength="172.66" waitingTime="0.00" waitingCount="0" stopTime="0.00" timeLoss="3.70" rerouteNo="0" devices="tripinfo_f_1.34" vType="DEFAULT_VEHTYPE" speedFactor="1.02" vaporized=""/>
    <tripinfo id="f_1.35" depart="120.00" departLane="E0_0" departPos="5.10" departSpeed="0.00" departDelay="50.00" arrival="137.00" arrivalLane="E2_0" arrivalPos="83.74" arrivalSpeed="13.18" duration="17.00" routeLength="172.66" waitingTime="0.00" waitingCount="0" stopTime="0.00" timeLoss="4.06" rerouteNo="0" devices="tripinfo_f_1.35" vType="DEFAULT_VEHTYPE" speedFactor="0.97" vaporized=""/>
    <tripinfo id="f_1.36" depart="123.00" departLane="E0_0" departPos="5.10" departSpeed="0.00" departDelay="51.00" arrival="140.00" arrivalLane="E2_0" arrivalPos="83.74" arrivalSpeed="14.02" duration="17.00" routeLength="172.66" waitingTime="0.00" waitingCount="0" stopTime="0.00" timeLoss="4.53" rerouteNo="0" devices="tripinfo_f_1.36" vType="DEFAULT_VEHTYPE" speedFactor="1.06" vaporized=""/>
    <tripinfo id="f_0.29" depart="80.00" departLane="E1_0" departPos="5.10" departSpeed="0.00" departDelay="22.00" arrival="147.00" arrivalLane="E2_1" arrivalPos="83.74" arrivalSpeed="14.10" duration="67.00" routeLength="173.67" waitingTime="44.00" waitingCount="1" stopTime="0.00" timeLoss="53.53" rerouteNo="0" devices="tripinfo_f_0.29" vType="DEFAULT_VEHTYPE" speedFactor="1.02" vaporized=""/>
    <tripinfo id="f_0.28" depart="77.00" departLane="E1_0" departPos="5.10" departSpeed="0.00" departDelay="21.00" arrival="148.00" arrivalLane="E2_0" arrivalPos="83.74" arrivalSpeed="11.53" duration="71.00" routeLength="178.85" waitingTime="47.00" waitingCount="1" stopTime="0.00" timeLoss="55.01" rerouteNo="0" devices="tripinfo_f_0.28" vType="DEFAULT_VEHTYPE" speedFactor="0.90" vaporized=""/>
    <tripinfo id="f_0.30" depart="83.00" departLane="E1_0" departPos="5.10" departSpeed="0.00" departDelay="23.00" arrival="149.00" arrivalLane="E2_0" arrivalPos="83.74" arrivalSpeed="13.58" duration="66.00" routeLength="178.85" waitingTime="44.00" waitingCount="1" stopTime="0.00" timeLoss="53.35" rerouteNo="0" devices="tripinfo_f_0.30" vType="DEFAULT_VEHTYPE" speedFactor="1.08" vaporized=""/>
    <tripinfo id="f_0.31" depart="86.00" departLane="E1_0" departPos="5.10" departSpeed="0.00" departDelay="24.00" arrival="149.00" arrivalLane="E2_1" arrivalPos="83.74" arrivalSpeed="13.74" duration="63.00" routeLength="173.67" waitingTime="40.00" waitingCount="1" stopTime="0.00" timeLoss="50.04" rerouteNo="0" devices="tripinfo_f_0.31" vType="DEFAULT_VEHTYPE" speedFactor="1.02" vaporized=""/>
    <tripinfo id="f_0.32" depart="89.00" departLane="E1_0" departPos="5.10" departSpeed="0.00" departDelay="25.00" arrival="152.00" arrivalLane="E2_0" arrivalPos="83.74" arrivalSpeed="12.36" duration="63.00" routeLength="178.85" waitingTime="37.00" waitingCount="1" stopTime="0.00" timeLoss="48.29" rerouteNo="0" devices="tripinfo_f_0.32" vType="DEFAULT_VEHTYPE" speedFactor="0.94" vaporized=""/>
    <tripinfo id="f_0.33" depart="92.00" departLane="E1_0" departPos="5.10" departSpeed="0.00" departDelay="26.00" arrival="153.00" arrivalLane="E2_1" arrivalPos="83.74" arrivalSpeed="11.74" duration="61.00" routeLength="173.67" waitingTime="35.00" waitingCount="1" stopTime="0.00" timeLoss="45.74" rerouteNo="0" devices="tripinfo_f_0.33" vType="DEFAULT_VEHTYPE" speedFactor="0.91" vaporized=""/>
    <tripinfo id="f_0.34" depart="95.00" departLane="E1_0" departPos="5.10" departSpeed="0.00" departDelay="27.00" arrival="154.00" arrivalLane="E2_0" arrivalPos="83.74" arrivalSpeed="14.30" duration="59.00" routeLength="178.85" waitingTime="33.00" waitingCount="1" stopTime="0.00" timeLoss="45.32" rerouteNo="0" devices="tripinfo_f_0.34" vType="DEFAULT_VEHTYPE" speedFactor="1.04" vaporized=""/>
    <tripinfo id="f_0.35" depart="98.00" departLane="E1_0" departPos="5.10" departSpeed="0.00" departDelay="28.00" arrival="155.00" arrivalLane="E2_1" arrivalPos="83.74" arrivalSpeed="13.77" duration="57.00" routeLength="173.67" waitingTime="30.00" waitingCount="1" stopTime="0.00" timeLoss="43.28" rerouteNo="0" devices="tripinfo_f_0.35" vType="DEFAULT_VEHTYPE" speedFactor="1.02" vaporized=""/>
    <tripinfo id="f_0.36" depart="101.00" departLane="E1_0" departPos="5.10" departSpeed="0.00" departDelay="29.00" arrival="156.00" arrivalLane="E2_0" arrivalPos="83.74" arrivalSpeed="12.19" duration="55.00" routeLength="178.85" waitingTime="30.00" waitingCount="1" stopTime="0.00" timeLoss="40.54" rerouteNo="0" devices="tripinfo_f_0.36" vType="DEFAULT_VEHTYPE" speedFactor="0.94" vaporized=""/>